/*--------------------------------*- C++ -*----------------------------------*\
| =========                 |                                                 |
| \\      /  F ield         | OpenFOAM: The Open Source CFD Toolbox           |
|  \\    /   O peration     | Version:  v1912                                 |
|   \\  /    A nd           | Website:  www.openfoam.com                      |
|    \\/     M anipulation  |                                                 |
\*---------------------------------------------------------------------------*/
FoamFile
{
    version     2.0;
    format      ascii;
    class       volScalarField;
    location    "3";
    object      p;
}
// * * * * * * * * * * * * * * * * * * * * * * * * * * * * * * * * * * * * * //

dimensions      [0 2 -2 0 0 0 0];


internalField   nonuniform List<scalar> 
290400
(
1869577.732
1869511.461
1869508.519
1869498.886
1869495.926
1869492.439
1869490.135
1869487.872
1869485.875
1869483.939
1869482.089
1869480.273
1869478.501
1869476.711
1869474.979
1869473.028
1869471.34
1869468.413
1869467.276
1869456.669
1869449.542
1869419.518
1869442.258
1869203.888
1869357.878
1869554.041
1869506.274
1869505.871
1869498.437
1869495.967
1869492.654
1869490.36
1869488.056
1869486.016
1869484.038
1869482.154
1869480.308
1869478.514
1869476.707
1869474.983
1869473.058
1869471.532
1869468.857
1869468.806
1869458.345
1869451.234
1869424.027
1869458.252
1869227.286
1869424.466
1869548.632
1869503.694
1869503.834
1869497.434
1869495.349
1869492.343
1869490.194
1869487.976
1869485.98
1869484.026
1869482.157
1869480.325
1869478.552
1869476.781
1869475.127
1869473.314
1869472.013
1869469.693
1869470.391
1869460.722
1869453.473
1869428.53
1869465.633
1869239.239
1869439.874
1869543.41
1869500.887
1869501.842
1869496.43
1869494.758
1869492.048
1869490.039
1869487.902
1869485.946
1869484.014
1869482.158
1869480.337
1869478.582
1869476.836
1869475.232
1869473.496
1869472.347
1869470.245
1869471.385
1869462.28
1869455.459
1869431.918
1869471.624
1869248.419
1869453.219
1869541.073
1869499.145
1869500.417
1869495.491
1869494.09
1869491.615
1869489.748
1869487.713
1869485.822
1869483.936
1869482.114
1869480.324
1869478.601
1869476.895
1869475.349
1869473.694
1869472.673
1869470.738
1869472.141
1869463.439
1869457.193
1869434.237
1869474.996
1869253.927
1869459.999
1869539.313
1869497.672
1869499.213
1869494.628
1869493.454
1869491.172
1869489.433
1869487.493
1869485.669
1869483.831
1869482.048
1869480.291
1869478.602
1869476.934
1869475.437
1869473.844
1869472.917
1869471.095
1869472.674
1869464.285
1869459.121
1869436.514
1869478.839
1869262.758
1869474.386
1869538.204
1869496.617
1869498.293
1869493.889
1869492.866
1869490.725
1869489.092
1869487.239
1869485.48
1869483.696
1869481.956
1869480.237
1869478.586
1869476.957
1869475.508
1869473.968
1869473.116
1869471.368
1869473.068
1869464.828
1869460.765
1869437.986
1869481.668
1869268.466
1869485.593
1869537.359
1869495.771
1869497.537
1869493.247
1869492.335
1869490.299
1869488.755
1869486.976
1869485.278
1869483.545
1869481.848
1869480.168
1869478.554
1869476.963
1869475.557
1869474.061
1869473.27
1869471.569
1869473.371
1869465.141
1869462.003
1869438.667
1869483.561
1869268.038
1869489.846
1869536.722
1869495.112
1869496.928
1869492.7
1869491.864
1869489.904
1869488.429
1869486.713
1869485.069
1869483.383
1869481.728
1869480.087
1869478.51
1869476.954
1869475.587
1869474.13
1869473.389
1869471.719
1869473.607
1869465.327
1869462.82
1869438.959
1869484.884
1869265.576
1869491.964
1869536.208
1869494.572
1869496.419
1869492.229
1869491.446
1869489.542
1869488.122
1869486.457
1869484.861
1869483.217
1869481.602
1869479.996
1869478.454
1869476.932
1869475.6
1869474.176
1869473.48
1869471.834
1869473.798
1869465.458
1869463.448
1869439.095
1869485.807
1869262.92
1869492.565
1869535.785
1869494.127
1869495.99
1869491.823
1869491.076
1869489.213
1869487.836
1869486.213
1869484.656
1869483.05
1869481.47
1869479.898
1869478.388
1869476.898
1869475.598
1869474.203
1869473.544
1869471.917
1869473.941
1869465.548
1869463.895
1869439.157
1869486.411
1869260.996
1869491.787
1869535.426
1869493.749
1869495.623
1869491.468
1869490.747
1869488.914
1869487.57
1869485.982
1869484.459
1869482.886
1869481.337
1869479.796
1869478.315
1869476.852
1869475.582
1869474.213
1869473.587
1869471.978
1869474.052
1869465.643
1869464.311
1869439.445
1869487.193
1869262.275
1869494.949
1869535.115
1869493.423
1869495.303
1869491.156
1869490.453
1869488.642
1869487.325
1869485.764
1869484.269
1869482.724
1869481.203
1869479.689
1869478.234
1869476.797
1869475.553
1869474.207
1869473.609
1869472.016
1869474.133
1869465.699
1869464.719
1869439.701
1869487.596
1869263.047
1869496.281
1869534.842
1869493.137
1869495.019
1869490.877
1869490.187
1869488.393
1869487.096
1869485.558
1869484.087
1869482.566
1869481.069
1869479.578
1869478.147
1869476.732
1869475.511
1869474.185
1869473.612
1869472.028
1869474.182
1869465.684
1869464.972
1869439.633
1869487.421
1869261.363
1869491.832
1869534.596
1869492.882
1869494.766
1869490.625
1869489.945
1869488.163
1869486.883
1869485.363
1869483.912
1869482.411
1869480.935
1869479.464
1869478.053
1869476.659
1869475.457
1869474.149
1869473.598
1869472.024
1869474.214
1869465.679
1869465.158
1869439.694
1869487.852
1869261.096
1869490.413
1869534.373
1869492.651
1869494.535
1869490.396
1869489.723
1869487.95
1869486.683
1869485.178
1869483.743
1869482.259
1869480.801
1869479.348
1869477.954
1869476.577
1869475.393
1869474.1
1869473.568
1869472.003
1869474.231
1869465.656
1869465.279
1869439.67
1869488.452
1869260.148
1869491.585
1869534.167
1869492.438
1869494.322
1869490.184
1869489.516
1869487.751
1869486.494
1869485.001
1869483.579
1869482.11
1869480.666
1869479.228
1869477.85
1869476.486
1869475.317
1869474.037
1869473.521
1869471.961
1869474.225
1869465.554
1869465.203
1869439.062
1869488.122
1869256.507
1869491.203
1869533.974
1869492.24
1869494.124
1869489.986
1869489.322
1869487.563
1869486.314
1869484.83
1869483.42
1869481.963
1869480.531
1869479.105
1869477.74
1869476.389
1869475.232
1869473.963
1869473.461
1869471.906
1869474.205
1869465.446
1869465.086
1869438.419
1869487.627
1869252.996
1869490.594
1869533.792
1869492.053
1869493.937
1869489.799
1869489.138
1869487.384
1869486.141
1869484.666
1869483.264
1869481.817
1869480.396
1869478.98
1869477.625
1869476.285
1869475.138
1869473.878
1869473.387
1869471.839
1869474.157
1869465.352
1869464.966
1869438.009
1869487.184
1869250.209
1869487.215
1869533.618
1869491.876
1869493.76
1869489.622
1869488.962
1869487.212
1869485.975
1869484.505
1869483.111
1869481.672
1869480.259
1869478.852
1869477.506
1869476.174
1869475.036
1869473.785
1869473.3
1869471.763
1869474.085
1869465.303
1869464.775
1869437.957
1869486.846
1869249.588
1869483.671
1869533.45
1869491.706
1869493.589
1869489.451
1869488.793
1869487.045
1869485.812
1869484.348
1869482.96
1869481.527
1869480.121
1869478.722
1869477.383
1869476.058
1869474.926
1869473.682
1869473.201
1869471.678
1869473.984
1869465.285
1869464.44
1869438.158
1869486.608
1869251.433
1869483.295
1869533.288
1869491.541
1869493.424
1869489.285
1869488.629
1869486.884
1869485.654
1869484.194
1869482.811
1869481.383
1869479.983
1869478.589
1869477.255
1869475.937
1869474.81
1869473.573
1869473.093
1869471.586
1869473.87
1869465.294
1869464.192
1869438.574
1869486.44
1869255.551
1869484.349
1869533.13
1869491.381
1869493.263
1869489.125
1869488.469
1869486.725
1869485.498
1869484.041
1869482.662
1869481.238
1869479.843
1869478.454
1869477.125
1869475.811
1869474.688
1869473.457
1869472.978
1869471.487
1869473.749
1869465.285
1869464.032
1869438.903
1869486.076
1869259.426
1869484.208
1869532.974
1869491.224
1869493.106
1869488.967
1869488.313
1869486.57
1869485.345
1869483.89
1869482.514
1869481.094
1869479.702
1869478.316
1869476.991
1869475.68
1869474.56
1869473.334
1869472.855
1869471.376
1869473.622
1869465.213
1869463.846
1869438.79
1869485.285
1869260.089
1869481.43
1869532.821
1869491.069
1869492.951
1869488.812
1869488.158
1869486.417
1869485.193
1869483.741
1869482.367
1869480.949
1869479.56
1869478.177
1869476.854
1869475.547
1869474.429
1869473.207
1869472.729
1869471.261
1869473.504
1869465.13
1869463.586
1869438.524
1869484.586
1869259.14
1869478.561
1869532.669
1869490.917
1869492.799
1869488.659
1869488.006
1869486.265
1869485.043
1869483.592
1869482.22
1869480.804
1869479.417
1869478.036
1869476.715
1869475.41
1869474.294
1869473.075
1869472.597
1869471.139
1869473.38
1869465.014
1869463.04
1869438.066
1869483.76
1869256.838
1869475.708
1869532.519
1869490.766
1869492.647
1869488.508
1869487.855
1869486.115
1869484.893
1869483.443
1869482.073
1869480.659
1869479.273
1869477.894
1869476.575
1869475.271
1869474.156
1869472.94
1869472.462
1869471.014
1869473.255
1869464.885
1869462.453
1869437.541
1869482.691
1869253.549
1869470.241
1869532.37
1869490.616
1869492.497
1869488.358
1869487.705
1869485.965
1869484.744
1869483.296
1869481.926
1869480.513
1869479.128
1869477.751
1869476.433
1869475.13
1869474.015
1869472.802
1869472.323
1869470.886
1869473.123
1869464.76
1869461.953
1869437.165
1869481.459
1869250.507
1869463.351
1869532.221
1869490.467
1869492.348
1869488.208
1869487.556
1869485.816
1869484.596
1869483.148
1869481.779
1869480.367
1869478.984
1869477.607
1869476.289
1869474.988
1869473.874
1869472.663
1869472.182
1869470.757
1869472.981
1869464.664
1869461.499
1869437.029
1869480.472
1869249.741
1869457.855
1869532.073
1869490.318
1869492.2
1869488.06
1869487.407
1869485.668
1869484.448
1869483.001
1869481.633
1869480.221
1869478.838
1869477.463
1869476.146
1869474.846
1869473.731
1869472.523
1869472.039
1869470.626
1869472.827
1869464.587
1869461.118
1869437.029
1869479.714
1869250.887
1869453.169
1869531.925
1869490.17
1869492.052
1869487.912
1869487.259
1869485.52
1869484.301
1869482.854
1869481.486
1869480.076
1869478.693
1869477.318
1869476.001
1869474.702
1869473.588
1869472.383
1869471.895
1869470.494
1869472.667
1869464.538
1869460.926
1869437.263
1869479.368
1869255.132
1869455.84
1869531.778
1869490.023
1869491.904
1869487.764
1869487.112
1869485.373
1869484.154
1869482.707
1869481.34
1869479.93
1869478.548
1869477.173
1869475.857
1869474.559
1869473.444
1869472.242
1869471.752
1869470.366
1869472.518
1869464.531
1869460.909
1869437.773
1869479.901
1869261.478
1869463.723
1869531.631
1869489.875
1869491.757
1869487.616
1869486.964
1869485.225
1869484.007
1869482.561
1869481.194
1869479.784
1869478.403
1869477.029
1869475.713
1869474.416
1869473.301
1869472.101
1869471.609
1869470.232
1869472.366
1869464.451
1869460.719
1869437.857
1869479.977
1869262.245
1869464.088
1869531.484
1869489.728
1869491.609
1869487.469
1869486.817
1869485.078
1869483.86
1869482.414
1869481.048
1869479.638
1869478.257
1869476.884
1869475.569
1869474.272
1869473.158
1869471.96
1869471.466
1869470.097
1869472.226
1869464.315
1869460.308
1869437.466
1869479.164
1869258.747
1869459.896
1869531.337
1869489.581
1869491.462
1869487.322
1869486.669
1869484.931
1869483.713
1869482.267
1869480.902
1869479.493
1869478.112
1869476.739
1869475.425
1869474.129
1869473.015
1869471.818
1869471.323
1869469.96
1869472.089
1869464.159
1869459.748
1869436.884
1869477.977
1869254.171
1869454.629
1869531.189
1869489.433
1869491.314
1869487.174
1869486.522
1869484.784
1869483.566
1869482.121
1869480.755
1869479.347
1869477.967
1869476.595
1869475.281
1869473.986
1869472.872
1869471.677
1869471.181
1869469.824
1869471.951
1869464.01
1869459.185
1869436.344
1869476.612
1869249.69
1869447.083
1869531.042
1869489.286
1869491.167
1869487.026
1869486.374
1869484.637
1869483.419
1869481.974
1869480.609
1869479.201
1869477.822
1869476.45
1869475.137
1869473.843
1869472.729
1869471.535
1869471.037
1869469.686
1869471.798
1869463.884
1869458.711
1869436.022
1869475.204
1869248.715
1869440.7
1869530.894
1869489.138
1869491.019
1869486.878
1869486.227
1869484.489
1869483.271
1869481.827
1869480.462
1869479.055
1869477.677
1869476.306
1869474.993
1869473.7
1869472.586
1869471.394
1869470.894
1869469.548
1869471.636
1869463.82
1869458.656
1869436.318
1869475.023
1869254.594
1869443.742
1869530.746
1869488.989
1869490.87
1869486.73
1869486.078
1869484.341
1869483.124
1869481.68
1869480.316
1869478.909
1869477.531
1869476.161
1869474.849
1869473.557
1869472.444
1869471.253
1869470.752
1869469.411
1869471.48
1869463.796
1869459.049
1869437.076
1869476.207
1869263.818
1869454.054
1869530.597
1869488.841
1869490.722
1869486.581
1869485.93
1869484.192
1869482.976
1869481.532
1869480.168
1869478.762
1869477.384
1869476.015
1869474.704
1869473.413
1869472.3
1869471.109
1869470.606
1869469.261
1869471.312
1869463.664
1869459.351
1869437.362
1869477.243
1869267.055
1869460.229
1869530.448
1869488.691
1869490.572
1869486.432
1869485.781
1869484.043
1869482.827
1869481.383
1869480.02
1869478.614
1869477.237
1869475.869
1869474.558
1869473.267
1869472.156
1869470.964
1869470.461
1869469.107
1869471.156
1869463.483
1869459.578
1869437.404
1869478.238
1869266.15
1869462.835
1869530.298
1869488.541
1869490.422
1869486.282
1869485.631
1869483.894
1869482.677
1869481.234
1869479.871
1869478.466
1869477.089
1869475.721
1869474.411
1869473.12
1869472.009
1869470.816
1869470.314
1869468.948
1869471.003
1869463.263
1869459.681
1869437.242
1869478.625
1869263.651
1869462.16
1869530.148
1869488.391
1869490.272
1869486.132
1869485.48
1869483.743
1869482.527
1869481.084
1869479.721
1869478.316
1869476.94
1869475.572
1869474.263
1869472.972
1869471.861
1869470.666
1869470.165
1869468.786
1869470.849
1869463.017
1869459.742
1869436.918
1869478.396
1869260.552
1869461.311
1869529.996
1869488.24
1869490.121
1869485.98
1869485.329
1869483.592
1869482.376
1869480.933
1869479.57
1869478.165
1869476.789
1869475.421
1869474.112
1869472.822
1869471.712
1869470.515
1869470.017
1869468.629
1869470.706
1869462.837
1869459.948
1869436.894
1869478.844
1869262.098
1869467.964
1869529.844
1869488.088
1869489.969
1869485.828
1869485.177
1869483.44
1869482.224
1869480.781
1869479.418
1869478.013
1869476.637
1869475.269
1869473.96
1869472.669
1869471.56
1869470.362
1869469.866
1869468.47
1869470.558
1869462.668
1869460.068
1869436.881
1869479.8
1869265.241
1869476.242
1869529.692
1869487.935
1869489.816
1869485.676
1869485.024
1869483.287
1869482.071
1869480.627
1869479.265
1869477.859
1869476.483
1869475.115
1869473.806
1869472.515
1869471.405
1869470.207
1869469.713
1869468.31
1869470.412
1869462.482
1869460.123
1869436.782
1869480.612
1869264.931
1869477.168
1869529.538
1869487.781
1869489.662
1869485.522
1869484.871
1869483.133
1869481.917
1869480.473
1869479.11
1869477.705
1869476.328
1869474.96
1869473.65
1869472.358
1869471.249
1869470.049
1869469.558
1869468.15
1869470.272
1869462.283
1869460.092
1869436.554
1869480.623
1869262.17
1869472.029
1869529.384
1869487.627
1869489.508
1869485.368
1869484.716
1869482.979
1869481.762
1869480.318
1869478.955
1869477.549
1869476.172
1869474.803
1869473.492
1869472.199
1869471.09
1869469.889
1869469.401
1869467.99
1869470.133
1869462.063
1869459.763
1869435.926
1869479.511
1869258.592
1869466.31
1869529.229
1869487.473
1869489.354
1869485.213
1869484.562
1869482.824
1869481.607
1869480.163
1869478.799
1869477.392
1869476.014
1869474.644
1869473.333
1869472.039
1869470.929
1869469.727
1869469.241
1869467.83
1869469.994
1869461.866
1869459.141
1869435.199
1869478.464
1869255.805
1869462.673
1869529.074
1869487.317
1869489.199
1869485.058
1869484.407
1869482.669
1869481.451
1869480.006
1869478.642
1869477.234
1869475.855
1869474.484
1869473.172
1869471.877
1869470.766
1869469.564
1869469.08
1869467.672
1869469.858
1869461.695
1869458.486
1869434.634
1869477.95
1869252.374
1869459.798
1869528.918
1869487.162
1869489.043
1869484.903
1869484.251
1869482.513
1869481.295
1869479.85
1869478.484
1869477.076
1869475.696
1869474.324
1869473.01
1869471.714
1869470.602
1869469.398
1869468.914
1869467.507
1869469.707
1869461.482
1869457.92
1869433.853
1869476.98
1869246.905
1869455.299
1869528.762
1869487.007
1869488.888
1869484.748
1869484.095
1869482.357
1869481.138
1869479.692
1869478.326
1869476.917
1869475.536
1869474.162
1869472.847
1869471.55
1869470.436
1869469.232
1869468.747
1869467.342
1869469.547
1869461.304
1869457.577
1869433.35
1869476.182
1869243.695
1869451.843
1869528.606
1869486.851
1869488.732
1869484.592
1869483.94
1869482.201
1869480.982
1869479.535
1869478.168
1869476.757
1869475.375
1869474
1869472.684
1869471.385
1869470.27
1869469.065
1869468.577
1869467.177
1869469.369
1869461.182
1869457.343
1869433.464
1869475.94
1869244.626
1869450.431
1869528.451
1869486.696
1869488.577
1869484.437
1869483.784
1869482.045
1869480.826
1869479.378
1869478.01
1869476.598
1869475.215
1869473.838
1869472.52
1869471.22
1869470.102
1869468.897
1869468.405
1869467.01
1869469.175
1869461.095
1869457.161
1869433.912
1869476.125
1869250.173
1869453.55
1869528.296
1869486.541
1869488.422
1869484.282
1869483.63
1869481.89
1869480.67
1869479.221
1869477.852
1869476.439
1869475.054
1869473.676
1869472.356
1869471.054
1869469.935
1869468.728
1869468.232
1869466.841
1869468.982
1869460.999
1869457.206
1869434.296
1869476.352
1869256.158
1869458.736
1869528.141
1869486.387
1869488.268
1869484.128
1869483.475
1869481.735
1869480.514
1869479.065
1869477.694
1869476.28
1869474.894
1869473.514
1869472.192
1869470.888
1869469.767
1869468.558
1869468.059
1869466.665
1869468.789
1869460.828
1869457.352
1869434.311
1869476.243
1869257.486
1869458.971
1869527.987
1869486.234
1869488.115
1869483.975
1869483.322
1869481.581
1869480.36
1869478.909
1869477.538
1869476.122
1869474.734
1869473.352
1869472.029
1869470.723
1869469.599
1869468.389
1869467.887
1869466.491
1869468.606
1869460.651
1869457.392
1869434.293
1869476.405
1869257.372
1869457.474
1869527.835
1869486.082
1869487.963
1869483.823
1869483.17
1869481.428
1869480.206
1869478.755
1869477.382
1869475.965
1869474.575
1869473.191
1869471.866
1869470.558
1869469.432
1869468.22
1869467.715
1869466.318
1869468.433
1869460.485
1869457.211
1869434.2
1869476.713
1869257.765
1869459.616
1869527.684
1869485.931
1869487.813
1869483.673
1869483.019
1869481.277
1869480.054
1869478.601
1869477.227
1869475.808
1869474.417
1869473.031
1869471.704
1869470.393
1869469.266
1869468.051
1869467.547
1869466.149
1869468.273
1869460.316
1869456.867
1869433.811
1869476.75
1869256.864
1869462.765
1869527.534
1869485.782
1869487.664
1869483.524
1869482.869
1869481.127
1869479.903
1869478.45
1869477.074
1869475.654
1869474.26
1869472.873
1869471.543
1869470.23
1869469.1
1869467.884
1869467.379
1869465.98
1869468.12
1869460.112
1869456.424
1869433.034
1869476.225
1869253.054
1869462.261
1869527.386
1869485.635
1869487.517
1869483.377
1869482.722
1869480.979
1869479.754
1869478.3
1869476.923
1869475.501
1869474.105
1869472.716
1869471.383
1869470.068
1869468.936
1869467.718
1869467.213
1869465.816
1869467.974
1869459.921
1869455.936
1869432.307
1869475.378
1869247.791
1869458.557
1869527.241
1869485.49
1869487.372
1869483.232
1869482.577
1869480.834
1869479.608
1869478.152
1869476.774
1869475.35
1869473.953
1869472.561
1869471.226
1869469.909
1869468.774
1869467.555
1869467.049
1869465.655
1869467.82
1869459.747
1869455.315
1869431.769
1869474.012
1869243.771
1869453.401
1869527.098
1869485.348
1869487.229
1869483.09
1869482.434
1869480.691
1869479.464
1869478.007
1869476.627
1869475.202
1869473.802
1869472.409
1869471.071
1869469.752
1869468.615
1869467.395
1869466.887
1869465.5
1869467.665
1869459.618
1869454.752
1869431.438
1869472.814
1869243.906
1869451.091
1869526.958
1869485.208
1869487.09
1869482.95
1869482.295
1869480.55
1869479.323
1869477.865
1869476.484
1869475.057
1869473.655
1869472.259
1869470.92
1869469.598
1869468.459
1869467.238
1869466.729
1869465.349
1869467.51
1869459.515
1869454.351
1869431.314
1869472.542
1869246.503
1869453.109
1869526.822
1869485.072
1869486.954
1869482.814
1869482.158
1869480.413
1869479.185
1869477.726
1869476.344
1869474.915
1869473.512
1869472.114
1869470.772
1869469.449
1869468.308
1869467.086
1869466.576
1869465.203
1869467.362
1869459.433
1869454.183
1869431.522
1869473.42
1869248.98
1869457.009
1869526.688
1869484.939
1869486.821
1869482.681
1869482.025
1869480.28
1869479.051
1869477.591
1869476.207
1869474.777
1869473.372
1869471.973
1869470.629
1869469.304
1869468.161
1869466.938
1869466.429
1869465.062
1869467.232
1869459.326
1869454.003
1869431.535
1869474.017
1869248.043
1869456.967
1869526.558
1869484.809
1869486.691
1869482.551
1869481.895
1869480.149
1869478.92
1869477.459
1869476.075
1869474.644
1869473.238
1869471.836
1869470.491
1869469.163
1869468.019
1869466.795
1869466.285
1869464.917
1869467.101
1869459.092
1869453.341
1869430.538
1869472.467
1869241.787
1869448.934
1869526.432
1869484.683
1869486.565
1869482.426
1869481.769
1869480.023
1869478.793
1869477.332
1869475.947
1869474.515
1869473.107
1869471.705
1869470.358
1869469.029
1869467.884
1869466.659
1869466.15
1869464.782
1869466.987
1869458.869
1869452.651
1869429.546
1869470.574
1869235.817
1869437.866
1869526.31
1869484.562
1869486.444
1869482.304
1869481.647
1869479.901
1869478.671
1869477.209
1869475.823
1869474.391
1869472.983
1869471.579
1869470.232
1869468.902
1869467.755
1869466.529
1869466.022
1869464.655
1869466.879
1869458.696
1869452.23
1869428.982
1869469.461
1869232.234
1869429.822
1869526.192
1869484.444
1869486.326
1869482.186
1869481.529
1869479.783
1869478.553
1869477.091
1869475.705
1869474.272
1869472.864
1869471.46
1869470.112
1869468.781
1869467.634
1869466.408
1869465.901
1869464.537
1869466.771
1869458.568
1869452.001
1869428.63
1869468.912
1869231.023
1869428.047
1869526.079
1869484.33
1869486.212
1869482.072
1869481.415
1869479.669
1869478.439
1869476.977
1869475.591
1869474.158
1869472.75
1869471.346
1869469.998
1869468.668
1869467.521
1869466.296
1869465.789
1869464.427
1869466.658
1869458.472
1869451.821
1869428.5
1869468.728
1869231.881
1869429.266
1869525.969
1869484.22
1869486.102
1869481.962
1869481.305
1869479.56
1869478.33
1869476.868
1869475.483
1869474.05
1869472.642
1869471.239
1869469.892
1869468.562
1869467.416
1869466.191
1869465.683
1869464.323
1869466.537
1869458.392
1869451.759
1869428.68
1869468.938
1869234.538
1869432.011
1869525.863
1869484.114
1869485.996
1869481.856
1869481.2
1869479.454
1869478.224
1869476.764
1869475.379
1869473.947
1869472.541
1869471.139
1869469.792
1869468.464
1869467.319
1869466.096
1869465.586
1869464.23
1869466.429
1869458.356
1869452.036
1869429.295
1869469.795
1869238.049
1869434.646
1869525.761
1869484.012
1869485.894
1869481.754
1869481.098
1869479.352
1869478.124
1869476.664
1869475.28
1869473.85
1869472.444
1869471.044
1869469.699
1869468.373
1869467.229
1869466.007
1869465.497
1869464.14
1869466.321
1869458.287
1869452.297
1869429.657
1869470.16
1869239.894
1869434.147
1869525.663
1869483.913
1869485.795
1869481.655
1869480.999
1869479.255
1869478.026
1869476.568
1869475.185
1869473.757
1869472.353
1869470.955
1869469.613
1869468.289
1869467.146
1869465.927
1869465.415
1869464.059
1869466.224
1869458.218
1869452.385
1869429.777
1869470.132
1869241.231
1869434.424
1869525.568
1869483.818
1869485.7
1869481.56
1869480.904
1869479.16
1869477.933
1869476.475
1869475.095
1869473.668
1869472.267
1869470.871
1869469.532
1869468.21
1869467.071
1869465.854
1869465.342
1869463.986
1869466.137
1869458.159
1869452.339
1869429.865
1869470.129
1869241.7
1869433.839
1869525.477
1869483.725
1869485.607
1869481.467
1869480.812
1869479.069
1869477.843
1869476.387
1869475.008
1869473.583
1869472.185
1869470.792
1869469.456
1869468.138
1869467.001
1869465.786
1869465.274
1869463.917
1869466.053
1869458.086
1869452.3
1869429.82
1869470.001
1869241.737
1869433.464
1869525.388
1869483.636
1869485.517
1869481.377
1869480.723
1869478.98
1869477.755
1869476.301
1869474.924
1869473.502
1869472.107
1869470.717
1869469.384
1869468.07
1869466.936
1869465.725
1869465.214
1869463.857
1869465.982
1869458.062
1869452.576
1869430.16
1869470.524
1869244.295
1869438.879
1869525.301
1869483.548
1869485.429
1869481.289
1869480.635
1869478.894
1869477.67
1869476.218
1869474.843
1869473.424
1869472.031
1869470.645
1869469.316
1869468.006
1869466.876
1869465.668
1869465.158
1869463.802
1869465.914
1869458.045
1869452.97
1869430.628
1869471.323
1869247.393
1869445.956
1869525.215
1869483.462
1869485.343
1869481.203
1869480.55
1869478.809
1869477.587
1869476.136
1869474.764
1869473.347
1869471.958
1869470.575
1869469.25
1869467.944
1869466.818
1869465.613
1869465.103
1869463.745
1869465.84
1869457.99
1869453.258
1869430.833
1869471.598
1869248.913
1869448.103
1869525.131
1869483.377
1869485.259
1869481.118
1869480.465
1869478.725
1869477.505
1869476.056
1869474.686
1869473.272
1869471.886
1869470.507
1869469.186
1869467.884
1869466.761
1869465.56
1869465.051
1869463.693
1869465.77
1869457.959
1869453.612
1869431.151
1869471.917
1869251.471
1869449.474
1869525.048
1869483.293
1869485.175
1869481.034
1869480.382
1869478.643
1869477.424
1869475.976
1869474.609
1869473.198
1869471.815
1869470.44
1869469.122
1869467.824
1869466.705
1869465.508
1869464.999
1869463.643
1869465.702
1869457.955
1869453.935
1869431.444
1869472.131
1869254.801
1869452.343
1869524.965
1869483.21
1869485.091
1869480.951
1869480.299
1869478.561
1869477.342
1869475.897
1869474.531
1869473.123
1869471.743
1869470.372
1869469.058
1869467.764
1869466.648
1869465.454
1869464.944
1869463.589
1869465.618
1869457.929
1869454.023
1869431.569
1869471.8
1869257.216
1869453.286
1869524.882
1869483.126
1869485.007
1869480.867
1869480.215
1869478.478
1869477.261
1869475.817
1869474.454
1869473.048
1869471.671
1869470.303
1869468.992
1869467.702
1869466.589
1869465.399
1869464.888
1869463.54
1869465.543
1869457.973
1869454.187
1869432.224
1869472.158
1869262.8
1869459.17
1869524.799
1869483.042
1869484.923
1869480.783
1869480.132
1869478.395
1869477.179
1869475.737
1869474.375
1869472.971
1869471.597
1869470.231
1869468.924
1869467.637
1869466.527
1869465.341
1869464.829
1869463.485
1869465.467
1869457.992
1869454.361
1869432.755
1869472.468
1869267.701
1869464.162
1869524.714
1869482.957
1869484.838
1869480.698
1869480.047
1869478.311
1869477.096
1869475.655
1869474.295
1869472.893
1869471.521
1869470.158
1869468.853
1869467.569
1869466.461
1869465.277
1869464.765
1869463.419
1869465.386
1869457.914
1869454.452
1869432.602
1869472.125
1869267.914
1869463.826
1869524.629
1869482.871
1869484.752
1869480.611
1869479.961
1869478.225
1869477.011
1869475.571
1869474.212
1869472.812
1869471.442
1869470.081
1869468.778
1869467.496
1869466.391
1869465.208
1869464.697
1869463.35
1869465.313
1869457.836
1869454.59
1869432.566
1869472.396
1869268.003
1869465.654
1869524.541
1869482.783
1869484.664
1869480.524
1869479.873
1869478.138
1869476.925
1869475.485
1869474.128
1869472.729
1869471.359
1869470
1869468.699
1869467.419
1869466.315
1869465.134
1869464.623
1869463.274
1869465.235
1869457.753
1869454.718
1869432.774
1869473.232
1869268.334
1869467.422
1869524.452
1869482.694
1869484.575
1869480.434
1869479.784
1869478.049
1869476.836
1869475.397
1869474.04
1869472.642
1869471.274
1869469.915
1869468.615
1869467.336
1869466.234
1869465.053
1869464.544
1869463.193
1869465.157
1869457.665
1869454.834
1869432.96
1869473.987
1869268.053
1869466.98
1869524.361
1869482.603
1869484.484
1869480.343
1869479.693
1869477.958
1869476.746
1869475.307
1869473.95
1869472.552
1869471.184
1869469.826
1869468.527
1869467.249
1869466.146
1869464.966
1869464.458
1869463.106
1869465.075
1869457.551
1869454.772
1869432.838
1869473.962
1869266.518
1869463.675
1869524.268
1869482.51
1869484.391
1869480.25
1869479.6
1869477.866
1869476.653
1869475.214
1869473.857
1869472.459
1869471.091
1869469.733
1869468.434
1869467.155
1869466.053
1869464.873
1869464.365
1869463.013
1869464.987
1869457.431
1869454.523
1869432.505
1869473.337
1869264.489
1869459.509
1869524.174
1869482.415
1869484.296
1869480.156
1869479.506
1869477.771
1869476.558
1869475.119
1869473.761
1869472.363
1869470.995
1869469.636
1869468.336
1869467.057
1869465.954
1869464.774
1869464.267
1869462.918
1869464.898
1869457.335
1869454.145
1869432.176
1869472.712
1869263.016
1869457.282
1869524.077
1869482.319
1869484.2
1869480.059
1869479.409
1869477.674
1869476.46
1869475.021
1869473.663
1869472.264
1869470.895
1869469.535
1869468.234
1869466.954
1869465.85
1869464.669
1869464.161
1869462.816
1869464.796
1869457.239
1869453.708
1869431.877
1869472.25
1869261.501
1869456.378
1869523.979
1869482.221
1869484.101
1869479.961
1869479.311
1869477.575
1869476.361
1869474.921
1869473.562
1869472.162
1869470.791
1869469.43
1869468.127
1869466.846
1869465.74
1869464.56
1869464.05
1869462.713
1869464.696
1869457.175
1869453.453
1869431.787
1869472.184
1869260.993
1869457.856
1869523.879
1869482.121
1869484.002
1869479.862
1869479.211
1869477.475
1869476.26
1869474.819
1869473.459
1869472.057
1869470.685
1869469.322
1869468.017
1869466.734
1869465.626
1869464.445
1869463.934
1869462.603
1869464.585
1869457.095
1869453.114
1869431.518
1869471.695
1869260.418
1869456.877
1869523.777
1869482.02
1869483.901
1869479.761
1869479.11
1869477.373
1869476.158
1869474.716
1869473.354
1869471.951
1869470.576
1869469.211
1869467.904
1869466.618
1869465.508
1869464.325
1869463.812
1869462.487
1869464.463
1869456.991
1869452.566
1869431.131
1869470.618
1869259.162
1869452.148
1869523.675
1869481.919
1869483.8
1869479.66
1869479.008
1869477.271
1869476.054
1869474.611
1869473.248
1869471.842
1869470.466
1869469.098
1869467.788
1869466.499
1869465.386
1869464.203
1869463.686
1869462.369
1869464.343
1869456.9
1869452.109
1869430.878
1869469.566
1869258.618
1869449.242
1869523.572
1869481.817
1869483.698
1869479.558
1869478.906
1869477.168
1869475.95
1869474.505
1869473.14
1869471.732
1869470.353
1869468.983
1869467.669
1869466.378
1869465.262
1869464.076
1869463.558
1869462.245
1869464.217
1869456.797
1869451.76
1869430.548
1869468.793
1869258.936