/*--------------------------------*- C++ -*----------------------------------*\
| =========                 |                                                 |
| \\      /  F ield         | OpenFOAM: The Open Source CFD Toolbox           |
|  \\    /   O peration     | Version:  v1912                                 |
|   \\  /    A nd           | Website:  www.openfoam.com                      |
|    \\/     M anipulation  |                                                 |
\*---------------------------------------------------------------------------*/
FoamFile
{
    version     2.0;
    format      ascii;
    class       volScalarField;
    location    "1";
    object      p;
}
// * * * * * * * * * * * * * * * * * * * * * * * * * * * * * * * * * * * * * //

dimensions      [0 2 -2 0 0 0 0];


internalField   nonuniform List<scalar> 
290400
(
1882825.638
1882759.368
1882756.426
1882746.793
1882743.832
1882740.345
1882738.039
1882735.774
1882733.776
1882731.836
1882729.984
1882728.161
1882726.392
1882724.578
1882722.883
1882720.819
1882719.373
1882715.816
1882716.15
1882700.985
1882706.248
1882653.759
1882717.469
1882356.217
1882710.683
1882801.947
1882754.18
1882753.777
1882746.343
1882743.873
1882740.559
1882738.263
1882735.957
1882733.916
1882731.934
1882730.048
1882728.193
1882726.403
1882724.568
1882722.885
1882720.831
1882719.569
1882716.188
1882717.723
1882702.228
1882709.16
1882659.483
1882738.133
1882390.533
1882798.902
1882796.537
1882751.6
1882751.74
1882745.34
1882743.254
1882740.248
1882738.097
1882735.877
1882733.879
1882731.921
1882730.05
1882728.209
1882726.44
1882724.639
1882723.027
1882721.079
1882720.05
1882716.99
1882719.308
1882704.433
1882711.802
1882664.382
1882746.09
1882404.908
1882815.947
1882791.316
1882748.793
1882749.749
1882744.336
1882742.664
1882739.953
1882737.942
1882735.804
1882733.846
1882731.909
1882730.051
1882728.221
1882726.469
1882724.692
1882723.131
1882721.254
1882720.386
1882717.518
1882720.326
1882705.878
1882714.066
1882667.889
1882752.803
1882414.452
1882830.547
1882788.979
1882747.051
1882748.324
1882743.398
1882741.996
1882739.521
1882737.652
1882735.615
1882733.722
1882731.832
1882730.008
1882728.208
1882726.488
1882724.751
1882723.249
1882721.448
1882720.713
1882718
1882721.089
1882706.982
1882715.757
1882670.055
1882755.964
1882419.094
1882836.51
1882787.22
1882745.58
1882747.12
1882742.536
1882741.361
1882739.078
1882737.338
1882735.396
1882733.569
1882731.728
1882729.942
1882728.176
1882726.49
1882724.79
1882723.339
1882721.599
1882720.963
1882718.36
1882721.639
1882707.87
1882717.659
1882672.387
1882759.685
1882429.461
1882851.818
1882786.112
1882744.525
1882746.201
1882741.798
1882740.774
1882738.632
1882736.999
1882735.143
1882733.383
1882731.594
1882729.852
1882728.124
1882726.477
1882724.816
1882723.413
1882721.726
1882721.167
1882718.639
1882722.043
1882708.461
1882719.236
1882673.761
1882762.22
1882435.997
1882863.834
1882785.268
1882743.681
1882745.448
1882741.157
1882740.245
1882738.208
1882736.663
1882734.882
1882733.182
1882731.445
1882729.747
1882728.058
1882726.448
1882724.825
1882723.466
1882721.824
1882721.327
1882718.847
1882722.36
1882708.805
1882720.461
1882674.244
1882764.173
1882434.251
1882869.96
1882784.634
1882743.024
1882744.84
1882740.612
1882739.775
1882737.815
1882736.339
1882734.621
1882732.976
1882731.286
1882729.63
1882727.979
1882726.407
1882724.82
1882723.5
1882721.897
1882721.453
1882719.005
1882722.609
1882708.996
1882721.259
1882674.394
1882765.748
1882430.386
1882875.168
1882784.121
1882742.486
1882744.333
1882740.143
1882739.36
1882737.455
1882736.034
1882734.368
1882732.77
1882731.123
1882729.506
1882727.892
1882726.355
1882724.802
1882723.519
1882721.949
1882721.55
1882719.128
1882722.814
1882709.137
1882721.915
1882674.424
1882767
1882426.449
1882878.219
1882783.701
1882742.043
1882743.907
1882739.739
1882738.992
1882737.128
1882735.751
1882734.126
1882732.569
1882730.96
1882729.379
1882727.798
1882726.294
1882724.772
1882723.522
1882721.982
1882721.621
1882719.218
1882722.965
1882709.236
1882722.371
1882674.393
1882767.771
1882423.487
1882877.765
1882783.345
1882741.668
1882743.542
1882739.387
1882738.666
1882736.832
1882735.488
1882733.898
1882732.375
1882730.799
1882729.249
1882727.7
1882726.225
1882724.732
1882723.511
1882721.998
1882721.67
1882719.287
1882723.081
1882709.358
1882722.77
1882674.766
1882768.531
1882425.696
1882881.375
1882783.037
1882741.345
1882743.225
1882739.078
1882738.375
1882736.563
1882735.245
1882733.683
1882732.188
1882730.641
1882729.119
1882727.597
1882726.149
1882724.682
1882723.487
1882721.998
1882721.699
1882719.333
1882723.165
1882709.456
1882723.187
1882675.147
1882768.806
1882427.413
1882882.815
1882782.766
1882741.062
1882742.944
1882738.802
1882738.112
1882736.317
1882735.02
1882733.481
1882732.01
1882730.486
1882728.989
1882727.49
1882726.066
1882724.622
1882723.45
1882721.982
1882721.706
1882719.351
1882723.213
1882709.465
1882723.46
1882675.065
1882768.466
1882425.17
1882876.318
1882782.524
1882740.81
1882742.694
1882738.554
1882737.873
1882736.091
1882734.811
1882733.29
1882731.838
1882730.335
1882728.859
1882727.381
1882725.977
1882724.553
1882723.402
1882721.951
1882721.697
1882719.352
1882723.248
1882709.478
1882723.685
1882675.245
1882769
1882425.498
1882874.3
1882782.304
1882740.582
1882742.466
1882738.327
1882737.654
1882735.881
1882734.614
1882733.108
1882731.673
1882730.187
1882728.729
1882727.269
1882725.883
1882724.475
1882723.342
1882721.906
1882721.674
1882719.335
1882723.275
1882709.46
1882723.896
1882675.298
1882769.98
1882424.974
1882877.49
1882782.101
1882740.372
1882742.257
1882738.119
1882737.45
1882735.686
1882734.428
1882732.934
1882731.513
1882730.042
1882728.598
1882727.153
1882725.782
1882724.39
1882723.272
1882721.848
1882721.633
1882719.293
1882723.279
1882709.324
1882723.958
1882674.442
1882770.032
1882419.886
1882880.268
1882781.912
1882740.178
1882742.062
1882737.924
1882737.26
1882735.501
1882734.252
1882732.767
1882731.357
1882729.898
1882728.467
1882727.035
1882725.677
1882724.297
1882723.191
1882721.777
1882721.579
1882719.238
1882723.274
1882709.178
1882724.012
1882673.526
1882770.028
1882414.787
1882883.792
1882781.733
1882739.994
1882741.878
1882737.74
1882737.079
1882735.325
1882734.082
1882732.606
1882731.205
1882729.755
1882728.335
1882726.913
1882725.566
1882724.196
1882723.102
1882721.696
1882721.51
1882719.17
1882723.24
1882709.057
1882724.035
1882672.915
1882769.986
1882410.453
1882882.445
1882781.562
1882739.82
1882741.704
1882737.566
1882736.907
1882735.156
1882733.919
1882732.449
1882731.055
1882729.614
1882728.202
1882726.789
1882725.451
1882724.089
1882723.004
1882721.606
1882721.429
1882719.095
1882723.181
1882708.981
1882723.904
1882672.801
1882769.856
1882408.848
1882878.919
1882781.398
1882739.653
1882741.537
1882737.398
1882736.741
1882734.993
1882733.76
1882732.295
1882730.907
1882729.473
1882728.068
1882726.662
1882725.331
1882723.977
1882722.898
1882721.507
1882721.335
1882719.01
1882723.089
1882708.922
1882723.524
1882673.039
1882769.674
1882410.45
1882878.046
1882781.239
1882739.492
1882741.375
1882737.236
1882736.58
1882734.834
1882733.605
1882732.144
1882730.761
1882729.332
1882727.933
1882726.533
1882725.207
1882723.859
1882722.785
1882721.4
1882721.231
1882718.92
1882722.981
1882708.915
1882723.209
1882673.568
1882769.313
1882415.443
1882876.966
1882781.083
1882739.335
1882741.217
1882737.078
1882736.423
1882734.679
1882733.452
1882731.995
1882730.616
1882729.191
1882727.796
1882726.401
1882725.08
1882723.736
1882722.666
1882721.287
1882721.119
1882718.823
1882722.863
1882708.912
1882723.023
1882674.002
1882768.667
1882420.445
1882874.166
1882780.931
1882739.181
1882741.063
1882736.924
1882736.27
1882734.527
1882733.302
1882731.847
1882730.471
1882729.049
1882727.658
1882726.266
1882724.949
1882723.609
1882722.542
1882721.167
1882720.999
1882718.713
1882722.739
1882708.848
1882722.894
1882673.82
1882767.756
1882420.98
1882869.569
1882780.781
1882739.029
1882740.911
1882736.772
1882736.118
1882734.377
1882733.153
1882731.7
1882730.327
1882728.907
1882727.519
1882726.13
1882724.815
1882723.478
1882722.413
1882721.042
1882720.876
1882718.598
1882722.625
1882708.766
1882722.758
1882673.506
1882767.263
1882419.892
1882866.574
1882780.632
1882738.879
1882740.761
1882736.622
1882735.969
1882734.228
1882733.006
1882731.554
1882730.182
1882728.765
1882727.379
1882725.992
1882724.679
1882723.344
1882722.281
1882720.912
1882720.746
1882718.473
1882722.505
1882708.605
1882722.319
1882673.034
1882766.882
1882417.457
1882865.454
1882780.485
1882738.731
1882740.613
1882736.474
1882735.821
1882734.08
1882732.859
1882731.409
1882730.038
1882728.623
1882727.238
1882725.852
1882724.541
1882723.207
1882722.145
1882720.778
1882720.614
1882718.345
1882722.386
1882708.43
1882721.865
1882672.499
1882766.282
1882413.757
1882861.248
1882780.338
1882738.584
1882740.466
1882736.326
1882735.673
1882733.934
1882732.713
1882731.264
1882729.894
1882728.48
1882727.096
1882725.712
1882724.401
1882723.069
1882722.007
1882720.642
1882720.477
1882718.213
1882722.257
1882708.278
1882721.492
1882672.139
1882765.396
1882410.085
1882854.551
1882780.192
1882738.438
1882740.32
1882736.18
1882735.527
1882733.788
1882732.568
1882731.119
1882729.75
1882728.337
1882726.954
1882725.57
1882724.26
1882722.929
1882721.867
1882720.504
1882720.338
1882718.083
1882722.117
1882708.161
1882721.095
1882672.084
1882764.576
1882409.199
1882848.001
1882780.047
1882738.293
1882740.174
1882736.034
1882735.381
1882733.642
1882732.423
1882730.975
1882729.606
1882728.193
1882726.811
1882725.428
1882724.119
1882722.788
1882721.726
1882720.365
1882720.196
1882717.951
1882721.962
1882708.067
1882720.685
1882672.126
1882763.618
1882410.299
1882839.908
1882779.902
1882738.147
1882740.029
1882735.889
1882735.236
1882733.497
1882732.278
1882730.83
1882729.463
1882728.05
1882726.668
1882725.286
1882723.977
1882722.646
1882721.585
1882720.225
1882720.053
1882717.82
1882721.8
1882708.022
1882720.423
1882672.403
1882762.793
1882415.615
1882840.817
1882779.758
1882738.003
1882739.884
1882735.744
1882735.091
1882733.352
1882732.133
1882730.686
1882729.319
1882727.906
1882726.525
1882725.143
1882723.834
1882722.505
1882721.443
1882720.087
1882719.912
1882717.695
1882721.652
1882708.044
1882720.359
1882673.115
1882763.011
1882424.668
1882848.71
1882779.613
1882737.858
1882739.739
1882735.599
1882734.947
1882733.208
1882731.989
1882730.542
1882729.175
1882727.763
1882726.382
1882725
1882723.692
1882722.363
1882721.302
1882719.947
1882719.77
1882717.561
1882721.502
1882707.959
1882720.166
1882673.239
1882763.158
1882425.523
1882848.418
1882779.469
1882737.714
1882739.595
1882735.455
1882734.802
1882733.064
1882731.845
1882730.398
1882729.031
1882727.62
1882726.239
1882724.858
1882723.55
1882722.221
1882721.16
1882719.806
1882719.63
1882717.424
1882721.37
1882707.789
1882719.831
1882672.755
1882762.757
1882420.347
1882845.337
1882779.325
1882737.569
1882739.45
1882735.31
1882734.658
1882732.919
1882731.701
1882730.254
1882728.888
1882727.477
1882726.096
1882724.716
1882723.408
1882722.08
1882721.019
1882719.666
1882719.489
1882717.285
1882721.243
1882707.582
1882719.375
1882672.056
1882762.161
1882414.016
1882843.048
1882779.181
1882737.425
1882739.306
1882735.166
1882734.514
1882732.775
1882731.557
1882730.111
1882728.744
1882727.334
1882725.953
1882724.573
1882723.266
1882721.939
1882720.877
1882719.525
1882719.349
1882717.147
1882721.114
1882707.39
1882718.891
1882671.395
1882761.29
1882407.362
1882836.903
1882779.036
1882737.28
1882739.161
1882735.021
1882734.369
1882732.631
1882731.413
1882729.967
1882728.601
1882727.191
1882725.811
1882724.431
1882723.125
1882721.798
1882720.737
1882719.386
1882719.207
1882717.01
1882720.964
1882707.232
1882718.353
1882670.939
1882759.64
1882404.811
1882827.406
1882778.892
1882737.136
1882739.017
1882734.877
1882734.225
1882732.486
1882731.269
1882729.823
1882728.457
1882727.047
1882725.668
1882724.289
1882722.983
1882721.657
1882720.596
1882719.247
1882719.065
1882716.878
1882720.799
1882707.198
1882718.143
1882671.303
1882758.689
1882412.615
1882825.998
1882778.747
1882736.991
1882738.872
1882734.732
1882734.08
1882732.342
1882731.124
1882729.679
1882728.314
1882726.904
1882725.526
1882724.147
1882722.842
1882721.517
1882720.456
1882719.11
1882718.925
1882716.753
1882720.64
1882707.27
1882718.378
1882672.361
1882759.04
1882426.422
1882833.734
1882778.602
1882736.846
1882738.727
1882734.587
1882733.935
1882732.197
1882730.979
1882729.534
1882728.17
1882726.761
1882725.383
1882724.005
1882722.7
1882721.376
1882720.315
1882718.97
1882718.781
1882716.612
1882720.464
1882707.203
1882718.503
1882672.73
1882759.481
1882431.171
1882839.397
1882778.457
1882736.7
1882738.581
1882734.441
1882733.789
1882732.052
1882730.834
1882729.39
1882728.025
1882726.617
1882725.239
1882723.862
1882722.558
1882721.234
1882720.174
1882718.83
1882718.639
1882716.468
1882720.308
1882707.066
1882718.623
1882672.81
1882760.459
1882429.826
1882843.223
1882778.311
1882736.554
1882738.435
1882734.295
1882733.643
1882731.906
1882730.689
1882729.244
1882727.88
1882726.472
1882725.095
1882723.718
1882722.414
1882721.091
1882720.032
1882718.686
1882718.495
1882716.317
1882720.159
1882706.863
1882718.652
1882672.591
1882760.941
1882425.711
1882842.897
1882778.165
1882736.408
1882738.289
1882734.149
1882733.497
1882731.76
1882730.543
1882729.098
1882727.735
1882726.327
1882724.95
1882723.573
1882722.27
1882720.947
1882719.888
1882718.541
1882718.35
1882716.161
1882720.009
1882706.621
1882718.667
1882672.055
1882760.659
1882420.072
1882841.99
1882778.018
1882736.261
1882738.142
1882734.002
1882733.35
1882731.613
1882730.396
1882728.952
1882727.588
1882726.18
1882724.804
1882723.428
1882722.124
1882720.802
1882719.743
1882718.396
1882718.207
1882716.012
1882719.872
1882706.475
1882718.853
1882671.996
1882760.931
1882422.17
1882850.334
1882777.87
1882736.114
1882737.995
1882733.854
1882733.203
1882731.465
1882730.248
1882728.804
1882727.441
1882726.033
1882724.656
1882723.28
1882721.977
1882720.655
1882719.596
1882718.248
1882718.061
1882715.86
1882719.727
1882706.33
1882718.928
1882672.038
1882761.699
1882427.278
1882860.788
1882777.722
1882735.965
1882737.846
1882733.706
1882733.055
1882731.317
1882730.1
1882728.656
1882727.292
1882725.884
1882724.508
1882723.132
1882721.829
1882720.506
1882719.448
1882718.098
1882717.914
1882715.706
1882719.583
1882706.164
1882718.994
1882672.001
1882762.584
1882427.224
1882862.266
1882777.573
1882735.817
1882737.698
1882733.558
1882732.906
1882731.169
1882729.952
1882728.507
1882727.143
1882725.735
1882724.358
1882722.982
1882721.678
1882720.355
1882719.297
1882717.946
1882717.765
1882715.551
1882719.448
1882705.984
1882719.072
1882671.823
1882762.842
1882423.636
1882856.397
1882777.424
1882735.668
1882737.549
1882733.409
1882732.757
1882731.019
1882729.802
1882728.357
1882726.993
1882725.585
1882724.207
1882722.83
1882721.527
1882720.202
1882719.145
1882717.792
1882717.615
1882715.392
1882719.318
1882705.747
1882718.914
1882671.096
1882762.01
1882418.97
1882850.552
1882777.274
1882735.518
1882737.399
1882733.259
1882732.607
1882730.869
1882729.652
1882728.207
1882726.842
1882725.433
1882724.056
1882722.678
1882721.374
1882720.048
1882718.99
1882717.636
1882717.463
1882715.232
1882719.192
1882705.495
1882718.459
1882670.321
1882761.459
1882416.246
1882848.012
1882777.124
1882735.368
1882737.249
1882733.109
1882732.457
1882730.719
1882729.501
1882728.056
1882726.691
1882725.281
1882723.903
1882722.524
1882721.219
1882719.893
1882718.835
1882717.478
1882717.31
1882715.074
1882719.072
1882705.264
1882717.978
1882669.833
1882761.774
1882412.997
1882848.143
1882776.974
1882735.218
1882737.099
1882732.959
1882732.307
1882730.569
1882729.351
1882727.905
1882726.539
1882725.129
1882723.749
1882722.37
1882721.064
1882719.736
1882718.678
1882717.319
1882717.153
1882714.909
1882718.935
1882705.001
1882717.602
1882668.919
1882761.489
1882405.905
1882847.016
1882776.823
1882735.068
1882736.949
1882732.809
1882732.157
1882730.418
1882729.2
1882727.753
1882726.387
1882724.976
1882723.595
1882722.215
1882720.908
1882719.579
1882718.519
1882717.16
1882716.995
1882714.749
1882718.789
1882704.814
1882717.41
1882668.31
1882761.064
1882401.398
1882845.136
1882776.673
1882734.918
1882736.799
1882732.659
1882732.006
1882730.267
1882729.049
1882727.602
1882726.234
1882724.822
1882723.441
1882722.059
1882720.751
1882719.421
1882718.36
1882717
1882716.833
1882714.591
1882718.618
1882704.697
1882717.16
1882668.518
1882760.771
1882402.326
1882841.947
1882776.522
1882734.767
1882736.649
1882732.509
1882731.856
1882730.117
1882728.897
1882727.45
1882726.082
1882724.669
1882723.286
1882721.904
1882720.594
1882719.263
1882718.2
1882716.84
1882716.668
1882714.433
1882718.429
1882704.62
1882716.823
1882669.172
1882760.466
1882409.76
1882841.554
1882776.372
1882734.618
1882736.499
1882732.359
1882731.706
1882729.967
1882728.747
1882727.298
1882725.93
1882724.516
1882723.132
1882721.748
1882720.437
1882719.104
1882718.04
1882716.679
1882716.503
1882714.276
1882718.242
1882704.567
1882716.76
1882669.666
1882760.11
1882417.686
1882843.985
1882776.223
1882734.468
1882736.35
1882732.21
1882731.557
1882729.817
1882728.596
1882727.147
1882725.777
1882724.362
1882722.978
1882721.592
1882720.28
1882718.946
1882717.88
1882716.518
1882716.337
1882714.111
1882718.055
1882704.445
1882716.878
1882669.574
1882759.573
1882418.497
1882842.59
1882776.074
1882734.32
1882736.201
1882732.061
1882731.408
1882729.668
1882728.447
1882726.997
1882725.626
1882724.21
1882722.824
1882721.437
1882720.123
1882718.787
1882717.719
1882716.356
1882716.174
1882713.946
1882717.882
1882704.294
1882716.911
1882669.55
1882759.606
1882417.863
1882840.451
1882775.926
1882734.172
1882736.053
1882731.914
1882731.26
1882729.519
1882728.298
1882726.847
1882725.475
1882724.058
1882722.67
1882721.281
1882719.966
1882718.628
1882717.559
1882716.193
1882716.011
1882713.778
1882717.723
1882704.112
1882716.747
1882669.474
1882760.107
1882418.406
1882843.697
1882775.779
1882734.026
1882735.907
1882731.767
1882731.113
1882729.372
1882728.15
1882726.698
1882725.325
1882723.906
1882722.517
1882721.127
1882719.81
1882718.47
1882717.4
1882716.031
1882715.852
1882713.612
1882717.585
1882703.9
1882716.517
1882668.993
1882760.671
1882417.322
1882849.9
1882775.633
1882733.88
1882735.762
1882731.622
1882730.968
1882729.227
1882728.003
1882726.551
1882725.177
1882723.756
1882722.366
1882720.974
1882719.654
1882718.312
1882717.241
1882715.869
1882715.694
1882713.442
1882717.456
1882703.638
1882716.296
1882667.967
1882760.898
1882412.179
1882853.412
1882775.489
1882733.737
1882735.618
1882731.479
1882730.824
1882729.082
1882727.858
1882726.405
1882725.03
1882723.608
1882722.215
1882720.821
1882719.5
1882718.156
1882717.084
1882715.708
1882715.538
1882713.276
1882717.337
1882703.385
1882716.073
1882667.002
1882760.985
1882404.538
1882853.574
1882775.347
1882733.595
1882735.477
1882731.337
1882730.682
1882728.94
1882727.715
1882726.261
1882724.884
1882723.461
1882722.067
1882720.671
1882719.348
1882718.001
1882716.927
1882715.549
1882715.382
1882713.111
1882717.205
1882703.129
1882715.632
1882666.274
1882760.28
1882397.925
1882849.836
1882775.207
1882733.456
1882735.337
1882731.197
1882730.543
1882728.8
1882727.574
1882726.119
1882724.741
1882723.316
1882721.92
1882720.522
1882719.197
1882717.848
1882716.773
1882715.392
1882715.227
1882712.952
1882717.07
1882702.93
1882715.178
1882665.821
1882759.25
1882397.233
1882846.832
1882775.069
1882733.318
1882735.2
1882731.06
1882730.405
1882728.662
1882727.436
1882725.979
1882724.6
1882723.174
1882721.776
1882720.376
1882719.049
1882717.698
1882716.621
1882715.238
1882715.075
1882712.799
1882716.926
1882702.78
1882714.84
1882665.675
1882758.953
1882400.544
1882849.128
1882774.934
1882733.184
1882735.065
1882730.926
1882730.27
1882728.526
1882727.3
1882725.842
1882724.462
1882723.034
1882721.635
1882720.233
1882718.905
1882717.551
1882716.473
1882715.088
1882714.926
1882712.65
1882716.785
1882702.69
1882714.757
1882666.093
1882760.085
1882404.821
1882854.923
1882774.802
1882733.052
1882734.934
1882730.794
1882730.138
1882728.394
1882727.167
1882725.708
1882724.327
1882722.898
1882721.497
1882720.094
1882718.763
1882717.408
1882716.329
1882714.942
1882714.784
1882712.507
1882716.664
1882702.579
1882714.749
1882666.309
1882761.288
1882404.698
1882857.57
1882774.673
1882732.923
1882734.805
1882730.665
1882730.009
1882728.265
1882727.037
1882725.578
1882724.196
1882722.765
1882721.364
1882719.958
1882718.626
1882717.269
1882716.188
1882714.798
1882714.641
1882712.353
1882716.537
1882702.268
1882714.278
1882665.083
1882760.267
1882396.037
1882852.253
1882774.547
1882732.798
1882734.679
1882730.54
1882729.884
1882728.139
1882726.91
1882725.451
1882724.068
1882722.637
1882721.234
1882719.827
1882718.494
1882717.135
1882716.053
1882714.66
1882714.507
1882712.209
1882716.429
1882701.969
1882713.802
1882663.924
1882758.906
1882388.144
1882842.365
1882774.425
1882732.675
1882734.557
1882730.417
1882729.761
1882728.016
1882726.787
1882725.327
1882723.944
1882722.512
1882721.108
1882719.701
1882718.367
1882717.006
1882715.924
1882714.529
1882714.378
1882712.074
1882716.324
1882701.76
1882713.596
1882663.342
1882758.355
1882384.039
1882834.431
1882774.306
1882732.557
1882734.439
1882730.299
1882729.643
1882727.897
1882726.668
1882725.208
1882723.824
1882722.392
1882720.988
1882719.58
1882718.245
1882716.884
1882715.801
1882714.405
1882714.255
1882711.95
1882716.215
1882701.623
1882713.512
1882662.938
1882758.142
1882382.694
1882833.253
1882774.191
1882732.442
1882734.323
1882730.184
1882729.527
1882727.782
1882726.553
1882725.093
1882723.709
1882722.277
1882720.872
1882719.464
1882718.129
1882716.768
1882715.685
1882714.289
1882714.139
1882711.836
1882716.094
1882701.518
1882713.315
1882662.785
1882757.856
1882383.722
1882834.631
1882774.079
1882732.33
1882734.212
1882730.072
1882729.416
1882727.671
1882726.442
1882724.982
1882723.598
1882722.166
1882720.762
1882719.354
1882718.019
1882716.658
1882715.575
1882714.18
1882714.026
1882711.729
1882715.96
1882701.442
1882713.1
1882663.054
1882757.602
1882387.31
1882836.518
1882773.971
1882732.222
1882734.104
1882729.964
1882729.308
1882727.563
1882726.334
1882724.874
1882723.491
1882722.06
1882720.657
1882719.25
1882717.915
1882716.556
1882715.473
1882714.08
1882713.923
1882711.637
1882715.836
1882701.465
1882713.227
1882663.928
1882758.023
1882392.431
1882836.775
1882773.867
1882732.117
1882733.999
1882729.859
1882729.203
1882727.458
1882726.23
1882724.771
1882723.389
1882721.958
1882720.556
1882719.15
1882717.817
1882716.459
1882715.377
1882713.987
1882713.825
1882711.547
1882715.708
1882701.459
1882713.334
1882664.394
1882757.856
1882394.782
1882832.546
1882773.766
1882732.015
1882733.897
1882729.757
1882729.102
1882727.357
1882726.13
1882724.672
1882723.29
1882721.861
1882720.46
1882719.056
1882717.725
1882716.369
1882715.287
1882713.9
1882713.734
1882711.465
1882715.594
1882701.428
1882713.26
1882664.546
1882757.383
1882396.447
1882830.259
1882773.667
1882731.917
1882733.798
1882729.658
1882729.003
1882727.259
1882726.033
1882724.576
1882723.195
1882721.768
1882720.369
1882718.967
1882717.637
1882716.284
1882715.204
1882713.82
1882713.651
1882711.391
1882715.492
1882701.388
1882713.022
1882664.719
1882757.085
1882397.175
1882827.971
1882773.572
1882731.821
1882733.703
1882729.563
1882728.908
1882727.164
1882725.939
1882724.483
1882723.104
1882721.678
1882720.281
1882718.882
1882717.555
1882716.204
1882715.126
1882713.746
1882713.572
1882711.319
1882715.389
1882701.329
1882712.772
1882664.657
1882756.493
1882397.082
1882826.264
1882773.479
1882731.727
1882733.609
1882729.469
1882728.815
1882727.072
1882725.847
1882724.392
1882723.016
1882721.592
1882720.197
1882718.8
1882717.476
1882716.129
1882715.052
1882713.677
1882713.501
1882711.26
1882715.302
1882701.359
1882712.861
1882665.085
1882756.529
1882400.844
1882831.208
1882773.389
1882731.636
1882733.518
1882729.378
1882728.724
1882726.982
1882725.758
1882724.305
1882722.93
1882721.508
1882720.116
1882718.722
1882717.401
1882716.057
1882714.983
1882713.613
1882713.435
1882711.205
1882715.217
1882701.405
1882713.051
1882665.65
1882756.852
1882405.104
1882838.049
1882773.3
1882731.547
1882733.428
1882729.288
1882728.634
1882726.893
1882725.671
1882724.219
1882722.846
1882721.427
1882720.037
1882718.646
1882717.328
1882715.988
1882714.917
1882713.551
1882713.37
1882711.149
1882715.124
1882701.392
1882713.102
1882665.808
1882756.469
1882406.452
1882838.165
1882773.212
1882731.459
1882733.34
1882729.2
1882728.547
1882726.806
1882725.585
1882724.135
1882722.763
1882721.346
1882719.96
1882718.572
1882717.257
1882715.921
1882714.852
1882713.492
1882713.306
1882711.097
1882715.036
1882701.418
1882713.237
1882666.122
1882756.122
1882409.442
1882836.566
1882773.126
1882731.371
1882733.253
1882729.113
1882728.46
1882726.72
1882725.5
1882724.051
1882722.682
1882721.267
1882719.883
1882718.499
1882717.187
1882715.855
1882714.788
1882713.433
1882713.245
1882711.051
1882714.954
1882701.478
1882713.37
1882666.394
1882755.728
1882413.451
1882837.209
1882773.04
1882731.285
1882733.166
1882729.026
1882728.374
1882726.635
1882725.416
1882723.968
1882722.601
1882721.188
1882719.807
1882718.425
1882717.116
1882715.788
1882714.723
1882713.374
1882713.18
1882710.997
1882714.852
1882701.483
1882713.192
1882666.396
1882754.571
1882415.615
1882834.44
1882772.954
1882731.199
1882733.08
1882728.94
1882728.288
1882726.549
1882725.331
1882723.885
1882722.519
1882721.109
1882719.73
1882718.351
1882717.045
1882715.721
1882714.658
1882713.314
1882713.116
1882710.951
1882714.761
1882701.577
1882713.078
1882667.256
1882754.203
1882423.195
1882837.761
1882772.868
1882731.112
1882732.993
1882728.853
1882728.202
1882726.464
1882725.247
1882723.802
1882722.438
1882721.029
1882719.652
1882718.276
1882716.973
1882715.651
1882714.59
1882713.251
1882713.049
1882710.901
1882714.669
1882701.652
1882713.019
1882667.984
1882753.784
1882430.231
1882840.797
1882772.782
1882731.026
1882732.907
1882728.767
1882728.115
1882726.378
1882725.162
1882723.718
1882722.355
1882720.948
1882719.573
1882718.199
1882716.898
1882715.579
1882714.52
1882713.184
1882712.977
1882710.836
1882714.57
1882701.611
1882712.963
1882667.702
1882752.798
1882430.145
1882838.373
1882772.695
1882730.938
1882732.819
1882728.679
1882728.028
1882726.291
1882725.076
1882723.633
1882722.271
1882720.866
1882719.492
1882718.12
1882716.82
1882715.504
1882714.446
1882713.113
1882712.905
1882710.77
1882714.484
1882701.579
1882713.006
1882667.712
1882752.807
1882430.751
1882840.227
1882772.607
1882730.85
1882732.731
1882728.591
1882727.94
1882726.204
1882724.988
1882723.546
1882722.185
1882720.781
1882719.408
1882718.038
1882716.739
1882715.425
1882714.367
1882713.037
1882712.826
1882710.696
1882714.39
1882701.537
1882713.031
1882668.186
1882753.531
1882432.537
1882842.352
1882772.518
1882730.761
1882732.642
1882728.502
1882727.851
1882726.115
1882724.9
1882723.458
1882722.098
1882720.694
1882719.322
1882717.953
1882716.655
1882715.342
1882714.285
1882712.956
1882712.745
1882710.618
1882714.302
1882701.491
1882713.103
1882668.646
1882754.271
1882433.376
1882841.673
1882772.428
1882730.67
1882732.551
1882728.411
1882727.76
1882726.024
1882724.81
1882723.368
1882722.008
1882720.605
1882719.234
1882717.864
1882716.567
1882715.254
1882714.198
1882712.87
1882712.658
1882710.531
1882714.212
1882701.394
1882713.052
1882668.618
1882754.278
1882431.732
1882837.583
1882772.336
1882730.579
1882732.46
1882728.32
1882727.669
1882725.933
1882724.718
1882723.277
1882721.917
1882720.513
1882719.142
1882717.773
1882716.476
1882715.163
1882714.107
1882712.778
1882712.566
1882710.438
1882714.123
1882701.263
1882712.857
1882668.257
1882753.756
1882429.017
1882832.814
1882772.243
1882730.486
1882732.367
1882728.227
1882727.576
1882725.84
1882724.625
1882723.183
1882721.823
1882720.419
1882719.048
1882717.678
1882716.381
1882715.067
1882714.011
1882712.682
1882712.471
1882710.343
1882714.039
1882701.14
1882712.55
1882667.922
1882753.366
1882427.244
1882831.175
1882772.149
1882730.392
1882732.273
1882728.133
1882727.482
1882725.745
1882724.53
1882723.088
1882721.727
1882720.323
1882718.951
1882717.58
1882716.282
1882714.968
1882713.91
1882712.581
1882712.37
1882710.241
1882713.943
1882701.005
1882712.173
1882667.628
1882753.178
1882425.519
1882831.377
1882772.053
1882730.296
1882732.177
1882728.037
1882727.386
1882725.65
1882724.434
1882722.991
1882721.63
1882720.225
1882718.851
1882717.48
1882716.18
1882714.865
1882713.806
1882712.476
1882712.267
1882710.14
1882713.855
1882700.933
1882712.048
1882667.619
1882753.517
1882425.469
1882835.068
1882771.957
1882730.2
1882732.081
1882727.941
1882727.29
1882725.553
1882724.337
1882722.893
1882721.531
1882720.125
1882718.75
1882717.377
1882716.075
1882714.758
1882713.699
1882712.367
1882712.158
1882710.032
1882713.76
1882700.835
1882711.852
1882667.332
1882753.331
1882425.014
1882835.065
1882771.86
1882730.103
1882731.984
1882727.844
1882727.193
1882725.455
1882724.238
1882722.794
1882721.43
1882720.023
1882718.646
1882717.271
1882715.968
1882714.649
1882713.587
1882712.253
1882712.045
1882709.917
1882713.653
1882700.678
1882711.392
1882666.863
1882752.458
1882422.909
1882829.218
1882771.762
1882730.006
1882731.887
1882727.747
1882727.095
1882725.357
1882724.139
1882722.694
1882721.329
1882719.92
1882718.541
1882717.164
1882715.859
1882714.537
1882713.474
1882712.138
1882711.93
1882709.801
1882713.552
1882700.544
1882711.057
1882666.551
1882751.658
1882421.62
1882825.865
1882771.664
1882729.908
1882731.79
1882727.65
1882726.997
1882725.259
1882724.04
1882722.594
1882721.227
1882719.816
1882718.435
1882717.056
1882715.748
1882714.424
1882713.358
1882712.019
1882711.812
1882709.68
1882713.446
1882700.413
1882710.862
1882666.092
1882751.076
1882421.721
1882826.025
1882771.566
1882729.811
1882731.692
1882727.552