/*--------------------------------*- C++ -*----------------------------------*\
| =========                 |                                                 |
| \\      /  F ield         | OpenFOAM: The Open Source CFD Toolbox           |
|  \\    /   O peration     | Version:  v1912                                 |
|   \\  /    A nd           | Website:  www.openfoam.com                      |
|    \\/     M anipulation  |                                                 |
\*---------------------------------------------------------------------------*/
FoamFile
{
    version     2.0;
    format      ascii;
    class       volScalarField;
    location    "6";
    object      p;
}
// * * * * * * * * * * * * * * * * * * * * * * * * * * * * * * * * * * * * * //

dimensions      [0 2 -2 0 0 0 0];


internalField   nonuniform List<scalar> 
290400
(
1856538.498
1856472.227
1856469.285
1856459.652
1856456.692
1856453.206
1856450.903
1856448.641
1856446.647
1856444.715
1856442.868
1856441.06
1856439.287
1856437.523
1856435.759
1856433.92
1856432.011
1856429.689
1856427.197
1856420.816
1856401.753
1856389.202
1856381.172
1856242.899
1856257.467
1856514.807
1856467.04
1856466.637
1856459.203
1856456.734
1856453.421
1856451.128
1856448.827
1856446.789
1856444.815
1856442.934
1856441.096
1856439.301
1856437.523
1856435.764
1856433.968
1856432.202
1856430.221
1856428.724
1856423.182
1856401.782
1856392.407
1856391.23
1856257.97
1856302.206
1856509.398
1856464.459
1856464.599
1856458.2
1856456.115
1856453.11
1856450.962
1856448.747
1856446.753
1856444.803
1856442.937
1856441.114
1856439.34
1856437.6
1856435.909
1856434.235
1856432.686
1856431.106
1856430.331
1856425.875
1856403.402
1856396.352
1856397.586
1856267.745
1856315.727
1856504.176
1856461.652
1856462.608
1856457.196
1856455.524
1856452.816
1856450.808
1856448.673
1856446.72
1856444.791
1856442.938
1856441.127
1856439.37
1856437.657
1856436.015
1856434.426
1856433.021
1856431.693
1856431.312
1856427.598
1856405.038
1856399.507
1856402.72
1856276.125
1856327.599
1856501.838
1856459.91
1856461.182
1856456.256
1856454.856
1856452.382
1856450.516
1856448.483
1856446.595
1856444.713
1856442.894
1856441.113
1856439.389
1856437.717
1856436.132
1856434.628
1856433.346
1856432.205
1856432.067
1856428.841
1856406.821
1856401.993
1856406.332
1856282.283
1856335.336
1856500.078
1856458.437
1856459.977
1856455.393
1856454.219
1856451.938
1856450.201
1856448.263
1856446.44
1856444.607
1856442.826
1856441.079
1856439.388
1856437.754
1856436.218
1856434.777
1856433.584
1856432.562
1856432.577
1856429.665
1856408.763
1856404.327
1856410.09
1856289.99
1856347.857
1856498.967
1856457.38
1856459.056
1856454.653
1856453.63
1856451.489
1856449.858
1856448.007
1856446.25
1856444.47
1856442.732
1856441.024
1856439.37
1856437.776
1856436.286
1856434.899
1856433.778
1856432.832
1856432.955
1856430.186
1856410.472
1856406.049
1856412.973
1856295.4
1856357.503
1856498.121
1856456.533
1856458.299
1856454.009
1856453.097
1856451.062
1856449.519
1856447.742
1856446.046
1856444.316
1856442.622
1856440.952
1856439.335
1856437.778
1856436.329
1856434.987
1856433.923
1856433.025
1856433.234
1856430.485
1856411.731
1856407.057
1856414.712
1856296.534
1856360.544
1856497.482
1856455.871
1856457.687
1856453.46
1856452.624
1856450.664
1856449.191
1856447.476
1856445.834
1856444.151
1856442.499
1856440.867
1856439.286
1856437.765
1856436.354
1856435.05
1856434.034
1856433.169
1856433.45
1856430.671
1856412.566
1856407.611
1856415.725
1856295.782
1856360.809
1856496.966
1856455.33
1856457.176
1856452.987
1856452.204
1856450.3
1856448.881
1856447.218
1856445.623
1856443.982
1856442.369
1856440.772
1856439.226
1856437.737
1856436.362
1856435.091
1856434.115
1856433.276
1856433.621
1856430.799
1856413.157
1856407.93
1856416.302
1856294.499
1856360.085
1856496.54
1856454.882
1856456.745
1856452.578
1856451.831
1856449.968
1856448.592
1856446.971
1856445.415
1856443.812
1856442.234
1856440.67
1856439.155
1856437.698
1856436.353
1856435.112
1856434.171
1856433.353
1856433.75
1856430.891
1856413.571
1856408.134
1856416.69
1856293.503
1856359.361
1856496.178
1856454.501
1856456.375
1856452.22
1856451.499
1856449.666
1856448.324
1856446.736
1856445.215
1856443.644
1856442.096
1856440.563
1856439.077
1856437.647
1856436.331
1856435.116
1856434.206
1856433.407
1856433.848
1856430.977
1856413.939
1856408.418
1856417.266
1856294.171
1856361.414
1856495.865
1856454.172
1856456.052
1856451.905
1856451.202
1856449.391
1856448.075
1856446.515
1856445.021
1856443.479
1856441.958
1856440.451
1856438.991
1856437.586
1856436.296
1856435.103
1856434.221
1856433.439
1856433.92
1856431.025
1856414.254
1856408.642
1856417.542
1856294.373
1856362.033
1856495.588
1856453.883
1856455.765
1856451.623
1856450.933
1856449.139
1856447.843
1856446.305
1856444.835
1856443.316
1856441.82
1856440.336
1856438.899
1856437.516
1856436.248
1856435.076
1856434.217
1856433.449
1856433.962
1856431.023
1856414.407
1856408.632
1856417.354
1856293.066
1856359.401
1856495.339
1856453.625
1856455.508
1856451.368
1856450.688
1856448.906
1856447.626
1856446.107
1856444.656
1856443.158
1856441.681
1856440.218
1856438.801
1856437.438
1856436.189
1856435.035
1856434.196
1856433.443
1856433.986
1856431.028
1856414.465
1856408.632
1856417.455
1856292.36
1856358.181
1856495.112
1856453.39
1856455.274
1856451.135
1856450.462
1856448.69
1856447.423
1856445.918
1856444.484
1856443.002
1856441.543
1856440.097
1856438.697
1856437.351
1856436.118
1856434.98
1856434.159
1856433.42
1856433.992
1856431.023
1856414.42
1856408.546
1856417.501
1856291.253
1856357.369
1856494.903
1856453.174
1856455.058
1856450.92
1856450.252
1856448.487
1856447.23
1856445.737
1856444.316
1856442.848
1856441.404
1856439.973
1856438.588
1856437.256
1856436.038
1856434.913
1856434.106
1856433.38
1856433.976
1856430.968
1856414.18
1856408.097
1856416.816
1856288.789
1856354.912
1856494.707
1856452.973
1856454.857
1856450.719
1856450.055
1856448.296
1856447.047
1856445.563
1856444.153
1856442.697
1856441.265
1856439.846
1856438.473
1856437.154
1856435.948
1856434.835
1856434.04
1856433.326
1856433.942
1856430.905
1856413.895
1856407.609
1856415.982
1856286.506
1856352.036
1856494.521
1856452.783
1856454.667
1856450.529
1856449.867
1856448.113
1856446.871
1856445.395
1856443.994
1856442.547
1856441.125
1856439.717
1856438.355
1856437.045
1856435.849
1856434.747
1856433.961
1856433.258
1856433.884
1856430.842
1856413.659
1856407.299
1856415.327
1856284.891
1856348.441
1856494.344
1856452.602
1856454.486
1856450.348
1856449.688
1856447.938
1856446.7
1856445.231
1856443.837
1856442.399
1856440.985
1856439.585
1856438.231
1856436.931
1856435.743
1856434.649
1856433.869
1856433.18
1856433.805
1856430.805
1856413.458
1856407.228
1856414.995
1856284.848
1856346.199
1856494.174
1856452.429
1856454.312
1856450.174
1856449.516
1856447.768
1856446.535
1856445.071
1856443.683
1856442.251
1856440.844
1856439.451
1856438.104
1856436.811
1856435.629
1856434.543
1856433.767
1856433.091
1856433.703
1856430.789
1856413.237
1856407.32
1856414.962
1856286.501
1856346.99
1856494.008
1856452.261
1856454.144
1856450.005
1856449.349
1856447.603
1856446.373
1856444.913
1856443.53
1856442.103
1856440.702
1856439.315
1856437.974
1856436.686
1856435.51
1856434.431
1856433.656
1856432.995
1856433.589
1856430.781
1856413.113
1856407.561
1856415.147
1856289.458
1856349.672
1856493.846
1856452.098
1856453.98
1856449.841
1856449.186
1856447.442
1856446.215
1856444.758
1856443.378
1856441.956
1856440.559
1856439.176
1856437.84
1856436.557
1856435.384
1856434.311
1856433.538
1856432.891
1856433.47
1856430.752
1856413.007
1856407.726
1856415.147
1856291.991
1856351.414
1856493.688
1856451.938
1856453.82
1856449.681
1856449.026
1856447.284
1856446.058
1856444.604
1856443.227
1856441.808
1856440.415
1856439.036
1856437.703
1856436.424
1856435.254
1856434.186
1856433.414
1856432.779
1856433.348
1856430.677
1856412.779
1856407.573
1856414.597
1856292.291
1856350.304
1856493.532
1856451.78
1856453.662
1856449.523
1856448.869
1856447.127
1856445.904
1856444.451
1856443.077
1856441.66
1856440.27
1856438.894
1856437.564
1856436.288
1856435.12
1856434.057
1856433.286
1856432.665
1856433.231
1856430.598
1856412.389
1856407.209
1856413.795
1856291.091
1856347.664
1856493.377
1856451.625
1856453.507
1856449.367
1856448.714
1856446.973
1856445.75
1856444.3
1856442.927
1856441.513
1856440.124
1856438.75
1856437.422
1856436.149
1856434.983
1856433.924
1856433.153
1856432.546
1856433.111
1856430.511
1856411.728
1856406.605
1856412.666
1856288.661
1856343.603
1856493.224
1856451.471
1856453.353
1856449.213
1856448.56
1856446.82
1856445.598
1856444.149
1856442.778
1856441.365
1856439.978
1856438.606
1856437.279
1856436.008
1856434.844
1856433.788
1856433.017
1856432.424
1856432.991
1856430.412
1856411.004
1856405.917
1856411.292
1856285.506
1856337.63
1856493.073
1856451.319
1856453.2
1856449.061
1856448.408
1856446.668
1856445.447
1856443.998
1856442.629
1856441.217
1856439.831
1856438.461
1856437.135
1856435.865
1856434.702
1856433.649
1856432.878
1856432.299
1856432.864
1856430.309
1856410.382
1856405.373
1856409.92
1856282.736
1856331.457
1856492.922
1856451.167
1856453.049
1856448.909
1856448.256
1856446.517
1856445.296
1856443.849
1856442.48
1856441.069
1856439.685
1856438.315
1856436.99
1856435.722
1856434.559
1856433.509
1856432.737
1856432.171
1856432.728
1856430.221
1856409.891
1856405.049
1856408.983
1856281.746
1856327.619
1856492.771
1856451.016
1856452.898
1856448.758
1856448.105
1856446.366
1856445.146
1856443.699
1856442.331
1856440.921
1856439.537
1856438.169
1856436.845
1856435.578
1856434.415
1856433.368
1856432.595
1856432.04
1856432.581
1856430.144
1856409.574
1856404.936
1856408.584
1856282.548
1856326.103
1856492.621
1856450.866
1856452.747
1856448.607
1856447.955
1856446.216
1856444.997
1856443.55
1856442.182
1856440.773
1856439.39
1856438.023
1856436.7
1856435.433
1856434.271
1856433.227
1856432.452
1856431.907
1856432.429
1856430.08
1856409.481
1856405.083
1856408.73
1856285.614
1856329.713
1856492.471
1856450.716
1856452.597
1856448.457
1856447.805
1856446.066
1856444.847
1856443.401
1856442.034
1856440.626
1856439.243
1856437.876
1856436.554
1856435.289
1856434.127
1856433.086
1856432.309
1856431.775
1856432.283
1856430.037
1856409.516
1856405.401
1856409.419
1856289.698
1856336.212
1856492.322
1856450.566
1856452.447
1856448.307
1856447.655
1856445.916
1856444.698
1856443.252
1856441.886
1856440.478
1856439.096
1856437.73
1856436.408
1856435.144
1856433.983
1856432.944
1856432.166
1856431.64
1856432.136
1856429.946
1856409.357
1856405.405
1856409.475
1856290.243
1856336.92
1856492.172
1856450.416
1856452.297
1856448.157
1856447.505
1856445.767
1856444.549
1856443.103
1856441.738
1856440.33
1856438.95
1856437.584
1856436.263
1856435
1856433.839
1856432.801
1856432.023
1856431.504
1856431.995
1856429.818
1856408.93
1856404.994
1856408.558
1856287.853
1856332.969
1856492.023
1856450.267
1856452.148
1856448.007
1856447.355
1856445.617
1856444.399
1856442.955
1856441.589
1856440.183
1856438.803
1856437.438
1856436.118
1856434.856
1856433.695
1856432.659
1856431.88
1856431.367
1856431.858
1856429.676
1856408.355
1856404.388
1856407.224
1856284.558
1856327.103
1856491.873
1856450.116
1856451.997
1856447.857
1856447.205
1856445.467
1856444.25
1856442.806
1856441.441
1856440.035
1856438.656
1856437.292
1856435.972
1856434.711
1856433.552
1856432.517
1856431.737
1856431.228
1856431.718
1856429.532
1856407.83
1856403.838
1856405.925
1856281.596
1856320.659
1856491.723
1856449.966
1856451.847
1856447.707
1856447.055
1856445.317
1856444.1
1856442.656
1856441.292
1856439.887
1856438.509
1856437.146
1856435.827
1856434.567
1856433.408
1856432.374
1856431.594
1856431.085
1856431.568
1856429.397
1856407.526
1856403.56
1856405.151
1856281.325
1856317.942
1856491.572
1856449.815
1856451.696
1856447.556
1856446.904
1856445.167
1856443.95
1856442.507
1856441.143
1856439.739
1856438.361
1856436.999
1856435.681
1856434.422
1856433.264
1856432.23
1856431.449
1856430.939
1856431.409
1856429.284
1856407.681
1856403.831
1856405.691
1856285.365
1856323.304
1856491.421
1856449.664
1856451.545
1856447.405
1856446.753
1856445.016
1856443.8
1856442.357
1856440.994
1856439.59
1856438.213
1856436.851
1856435.535
1856434.276
1856433.119
1856432.085
1856431.305
1856430.789
1856431.251
1856429.175
1856408.226
1856404.486
1856407.272
1856291.312
1856333.073
1856491.269
1856449.512
1856451.393
1856447.253
1856446.601
1856444.864
1856443.648
1856442.206
1856440.843
1856439.44
1856438.063
1856436.703
1856435.387
1856434.129
1856432.973
1856431.937
1856431.157
1856430.629
1856431.082
1856428.99
1856408.699
1856404.897
1856408.543
1856293.967
1856338.402
1856491.117
1856449.359
1856451.24
1856447.1
1856446.449
1856444.712
1856443.496
1856442.054
1856440.692
1856439.289
1856437.913
1856436.553
1856435.238
1856433.981
1856432.825
1856431.788
1856431.008
1856430.466
1856430.918
1856428.772
1856409.041
1856405.099
1856409.425
1856294.026
1856340.137
1856490.963
1856449.206
1856451.087
1856446.946
1856446.295
1856444.559
1856443.343
1856441.901
1856440.539
1856439.137
1856437.761
1856436.402
1856435.088
1856433.83
1856432.675
1856431.636
1856430.856
1856430.3
1856430.756
1856428.536
1856409.234
1856405.128
1856409.759
1856293.049
1856339.975
1856490.809
1856449.051
1856450.932
1856446.792
1856446.141
1856444.404
1856443.189
1856441.747
1856440.385
1856438.983
1856437.608
1856436.249
1856434.935
1856433.678
1856432.523
1856431.482
1856430.703
1856430.132
1856430.593
1856428.292
1856409.361
1856405.072
1856409.69
1856291.893
1856339.914
1856490.653
1856448.896
1856450.777
1856446.637
1856445.985
1856444.249
1856443.033
1856441.591
1856440.23
1856438.828
1856437.453
1856436.094
1856434.78
1856433.523
1856432.368
1856431.325
1856430.548
1856429.968
1856430.437
1856428.097
1856409.564
1856405.17
1856410.141
1856293.201
1856344.433
1856490.497
1856448.74
1856450.621
1856446.48
1856445.829
1856444.093
1856442.877
1856441.435
1856440.073
1856438.671
1856437.296
1856435.937
1856434.623
1856433.365
1856432.211
1856431.167
1856430.391
1856429.805
1856430.28
1856427.925
1856409.667
1856405.218
1856410.919
1856295.244
1856349.655
1856490.34
1856448.583
1856450.463
1856446.323
1856445.672
1856443.935
1856442.719
1856441.277
1856439.915
1856438.513
1856437.138
1856435.778
1856434.464
1856433.206
1856432.051
1856431.006
1856430.232
1856429.643
1856430.126
1856427.75
1856409.632
1856405.145
1856411.364
1856295.071
1856349.873
1856490.182
1856448.424
1856450.305
1856446.165
1856445.514
1856443.777
1856442.561
1856441.118
1856439.756
1856438.353
1856436.977
1856435.617
1856434.302
1856433.043
1856431.888
1856430.844
1856430.071
1856429.483
1856429.979
1856427.571
1856409.403
1856404.872
1856410.979
1856292.913
1856345.856
1856490.022
1856448.266
1856450.147
1856446.006
1856445.355
1856443.618
1856442.401
1856440.958
1856439.596
1856438.192
1856436.815
1856435.454
1856434.138
1856432.879
1856431.723
1856430.678
1856429.907
1856429.324
1856429.834
1856427.394
1856408.841
1856404.207
1856409.632
1856289.743
1856340.711
1856489.863
1856448.106
1856449.987
1856445.847
1856445.195
1856443.458
1856442.241
1856440.798
1856439.434
1856438.03
1856436.652
1856435.29
1856433.973
1856432.712
1856431.556
1856430.511
1856429.74
1856429.166
1856429.69
1856427.247
1856408.004
1856403.341
1856408.163
1856286.564
1856335.951
1856489.702
1856447.946
1856449.827
1856445.687
1856445.035
1856443.297
1856442.08
1856440.636
1856439.272
1856437.866
1856436.487
1856435.124
1856433.806
1856432.544
1856431.386
1856430.342
1856429.572
1856429.009
1856429.545
1856427.118
1856407.127
1856402.53
1856406.913
1856282.94
1856330.583
1856489.542
1856447.786
1856449.667
1856445.527
1856444.875
1856443.137
1856441.919
1856440.474
1856439.108
1856437.702
1856436.322
1856434.957
1856433.637
1856432.374
1856431.215
1856430.171
1856429.399
1856428.844
1856429.388
1856426.951
1856406.357
1856401.695
1856405.447
1856278.667
1856324.256
1856489.381
1856447.625
1856449.507
1856445.366
1856444.714
1856442.976
1856441.757
1856440.311
1856438.945
1856437.537
1856436.156
1856434.789
1856433.468
1856432.203
1856431.042
1856429.997
1856429.224
1856428.675
1856429.219
1856426.788
1856405.868
1856401.172
1856404.442
1856276.32
1856320.42
1856489.22
1856447.465
1856449.346
1856445.206
1856444.554
1856442.815
1856441.595
1856440.149
1856438.781
1856437.372
1856435.989
1856434.621
1856433.297
1856432.031
1856430.868
1856429.823
1856429.046
1856428.502
1856429.035
1856426.653
1856405.662
1856401.173
1856404.33
1856277.077
1856320.54
1856489.06
1856447.305
1856449.186
1856445.046
1856444.393
1856442.654
1856441.434
1856439.986
1856438.618
1856437.207
1856435.822
1856434.452
1856433.127
1856431.858
1856430.693
1856429.646
1856428.866
1856428.324
1856428.836
1856426.534
1856405.651
1856401.481
1856404.955
1856280.96
1856325.483
1856488.9
1856447.145
1856449.027
1856444.887
1856444.234
1856442.494
1856441.273
1856439.824
1856438.454
1856437.042
1856435.656
1856434.284
1856432.956
1856431.686
1856430.518
1856429.47
1856428.686
1856428.142
1856428.635
1856426.392
1856405.833
1856401.836
1856405.695
1856285.309
1856331.932
1856488.74
1856446.987
1856448.868
1856444.728
1856444.075
1856442.334
1856441.113
1856439.663
1856438.292
1856436.878
1856435.49
1856434.116
1856432.786
1856431.513
1856430.343
1856429.292
1856428.504
1856427.956
1856428.433
1856426.195
1856406.041
1856402.012
1856406.019
1856287.076
1856333.902
1856488.582
1856446.829
1856448.711
1856444.571
1856443.917
1856442.176
1856440.954
1856439.503
1856438.13
1856436.715
1856435.324
1856433.948
1856432.616
1856431.341
1856430.168
1856429.115
1856428.323
1856427.772
1856428.239
1856426.001
1856406.1
1856402.071
1856406.267
1856287.604
1856333.542
1856488.426
1856446.673
1856448.554
1856444.415
1856443.761
1856442.019
1856440.796
1856439.344
1856437.969
1856436.552
1856435.16
1856433.782
1856432.447
1856431.17
1856429.994
1856428.939
1856428.144
1856427.593
1856428.053
1856425.838
1856405.907
1856401.957
1856406.37
1856287.929
1856334.691
1856488.271
1856446.519
1856448.4
1856444.26
1856443.606
1856441.864
1856440.639
1856439.186
1856437.81
1856436.391
1856434.997
1856433.617
1856432.28
1856430.999
1856429.821
1856428.765
1856427.967
1856427.42
1856427.879
1856425.69
1856405.468
1856401.541
1856405.992
1856287.052
1856335.167
1856488.118
1856446.366
1856448.248
1856444.108
1856443.453
1856441.71
1856440.485
1856439.031
1856437.653
1856436.232
1856434.836
1856433.453
1856432.113
1856430.831
1856429.649
1856428.592
1856427.791
1856427.251
1856427.712
1856425.528
1856404.842
1856400.813
1856404.967
1856284.192
1856331.968
1856487.967
1856446.216
1856448.098
1856443.958
1856443.303
1856441.559
1856440.333
1856438.877
1856437.498
1856436.076
1856434.677
1856433.292
1856431.949
1856430.664
1856429.48
1856428.422
1856427.619
1856427.088
1856427.551
1856425.383
1856404.137
1856400.082
1856403.602
1856280.526
1856326.585
1856487.819
1856446.069
1856447.95
1856443.811
1856443.155
1856441.411
1856440.184
1856438.727
1856437.346
1856435.922
1856434.521
1856433.133
1856431.788
1856430.501
1856429.313
1856428.255
1856427.448
1856426.93
1856427.388
1856425.262
1856403.39
1856399.48
1856402.094
1856277.888
1856321.885
1856487.674
1856445.924
1856447.806
1856443.666
1856443.01
1856441.266
1856440.038
1856438.579
1856437.197
1856435.771
1856434.368
1856432.978
1856431.63
1856430.34
1856429.15
1856428.092
1856427.282
1856426.778
1856427.228
1856425.177
1856402.753
1856399.049
1856401.053
1856277.93
1856320.744
1856487.532
1856445.783
1856447.665
1856443.525
1856442.869
1856441.124
1856439.895
1856438.435
1856437.052
1856435.623
1856434.218
1856432.826
1856431.476
1856430.184
1856428.991
1856427.934
1856427.121
1856426.632
1856427.069
1856425.112
1856402.276
1856398.807
1856400.789
1856279.561
1856322.314
1856487.394
1856445.646
1856447.528
1856443.388
1856442.731
1856440.986
1856439.756
1856438.295
1856436.91
1856435.48
1856434.073
1856432.679
1856431.326
1856430.033
1856428.837
1856427.781
1856426.966
1856426.491
1856426.921
1856425.056
1856401.941
1856398.772
1856401.11
1856280.779
1856323.887
1856487.26
1856445.512
1856447.394
1856443.254
1856442.597
1856440.851
1856439.621
1856438.159
1856436.773
1856435.342
1856433.933
1856432.537
1856431.182
1856429.887
1856428.689
1856427.634
1856426.817
1856426.357
1856426.789
1856424.981
1856401.489
1856398.523
1856400.875
1856279.429
1856321.598
1856487.131
1856445.383
1856447.265
1856443.125
1856442.468
1856440.721
1856439.49
1856438.028
1856436.641
1856435.208
1856433.798
1856432.4
1856431.043
1856429.747
1856428.548
1856427.492
1856426.675
1856426.225
1856426.662
1856424.835
1856400.599
1856397.543
1856398.985
1856274.751
1856313.256
1856487.005
1856445.257
1856447.139
1856443
1856442.342
1856440.596
1856439.364
1856437.901
1856436.513
1856435.08
1856433.668
1856432.269
1856430.912
1856429.614
1856428.414
1856427.359
1856426.541
1856426.103
1856426.551
1856424.694
1856399.665
1856396.494
1856396.83
1856269.896
1856303.213
1856486.884
1856445.137
1856447.019
1856442.879
1856442.222
1856440.475
1856439.243
1856437.78
1856436.391
1856434.957
1856433.545
1856432.146
1856430.787
1856429.488
1856428.287
1856427.234
1856426.416
1856425.987
1856426.447
1856424.575
1856398.996
1856395.787
1856395.34
1856266.496
1856296.071
1856486.768
1856445.02
1856446.903
1856442.763
1856442.105
1856440.358
1856439.127
1856437.663
1856436.275
1856434.84
1856433.428
1856432.028
1856430.669
1856429.371
1856428.17
1856427.117
1856426.3
1856425.878
1856426.345
1856424.475
1856398.603
1856395.37
1856394.56
1856265.116
1856294.006
1856486.657
1856444.909
1856446.791
1856442.651
1856441.994
1856440.247
1856439.015
1856437.552
1856436.164
1856434.73
1856433.318
1856431.919
1856430.56
1856429.262
1856428.061
1856427.009
1856426.193
1856425.775
1856426.24
1856424.391
1856398.433
1856395.236
1856394.463
1856265.667
1856294.98
1856486.55
1856444.802
1856446.684
1856442.544
1856441.887
1856440.14
1856438.909
1856437.446
1856436.058
1856434.625
1856433.214
1856431.816
1856430.458
1856429.161
1856427.961
1856426.91
1856426.094
1856425.675
1856426.132
1856424.304
1856398.517
1856395.423
1856394.97
1856267.687
1856297.951
1856486.447
1856444.699
1856446.581
1856442.441
1856441.784
1856440.038
1856438.807
1856437.345
1856435.959
1856434.527
1856433.117
1856431.72
1856430.364
1856429.069
1856427.871
1856426.82
1856426.005
1856425.582
1856426.034
1856424.222
1856398.926
1856395.971
1856396.01
1856270.237
1856301.686
1856486.349
1856444.6
1856446.482
1856442.342
1856441.686
1856439.94
1856438.71
1856437.249
1856435.864
1856434.434
1856433.026
1856431.631
1856430.277
1856428.984
1856427.788
1856426.738
1856425.924
1856425.493
1856425.94
1856424.107
1856399.36
1856396.403
1856396.772
1856271.857
1856303.776
1856486.255
1856444.505
1856446.387
1856442.247
1856441.591
1856439.846
1856438.617
1856437.158
1856435.774
1856434.346
1856432.941
1856431.548
1856430.198
1856428.907
1856427.714
1856426.665
1856425.853
1856425.412
1856425.856
1856423.99
1856399.667
1856396.626
1856397.212
1856272.994
1856305.844
1856486.164
1856444.414
1856446.296
1856442.156
1856441.5
1856439.756
1856438.528
1856437.071
1856435.689
1856434.263
1856432.861
1856431.471
1856430.124
1856428.836
1856427.647
1856426.599
1856425.789
1856425.338
1856425.781
1856423.884
1856399.888
1856396.774
1856397.598
1856273.49
1856306.585
1856486.077
1856444.326
1856446.208
1856442.068
1856441.412
1856439.669
1856438.443
1856436.987
1856435.608
1856434.185
1856432.785
1856431.399
1856430.056
1856428.772
1856427.586
1856426.539
1856425.732
1856425.268
1856425.711
1856423.767
1856400.141
1856396.883
1856397.972
1856273.916
1856307.231
1856485.992
1856444.24
1856446.122
1856441.982
1856441.327
1856439.585
1856438.36
1856436.906
1856435.53
1856434.109
1856432.713
1856431.332
1856429.992
1856428.712
1856427.531
1856426.485
1856425.682
1856425.205
1856425.65
1856423.673
1856400.661
1856397.309
1856398.864
1856275.887
1856311.979
1856485.91
1856444.157
1856446.039
1856441.899
1856441.244
1856439.503
1856438.28
1856436.828
1856435.454
1856434.037
1856432.645
1856431.267
1856429.932
1856428.656
1856427.479
1856426.435
1856425.636
1856425.145
1856425.593
1856423.582
1856401.314
1856397.882
1856400.022
1856278.399
1856318.172
1856485.829
1856444.075
1856445.957
1856441.817
1856441.163
1856439.423
1856438.201
1856436.752
1856435.38
1856433.967
1856432.578
1856431.205
1856429.874
1856428.603
1856427.431
1856426.387
1856425.592
1856425.086
1856425.531
1856423.466
1856401.922
1856398.321
1856400.936
1856280.287
1856321.744
1856485.749
1856443.995
1856445.876
1856441.736
1856441.083
1856439.344
1856438.124
1856436.676
1856435.308
1856433.897
1856432.513
1856431.143
1856429.818
1856428.55
1856427.383
1856426.341
1856425.549
1856425.028
1856425.472
1856423.363
1856402.584
1856398.824
1856401.932
1856282.732
1856325.299
1856485.67
1856443.914
1856445.796
1856441.655
1856441.003
1856439.265
1856438.047
1856436.601
1856435.235
1856433.828
1856432.447
1856431.082
1856429.761
1856428.498
1856427.335
1856426.295
1856425.506
1856424.972
1856425.413
1856423.275
1856403.21
1856399.284
1856402.859
1856285.601
1856329.755
1856485.591
1856443.834
1856445.715
1856441.575
1856440.924
1856439.186
1856437.969
1856436.526
1856435.163
1856433.759
1856432.381
1856431.02
1856429.703
1856428.444
1856427.286
1856426.247
1856425.461
1856424.913
1856425.344
1856423.184
1856403.681
1856399.628
1856403.492
1856288.074
1856333.395
1856485.511
1856443.753
1856445.634
1856441.494
1856440.843
1856439.107
1856437.891
1856436.45
1856435.089
1856433.688
1856432.314
1856430.956
1856429.643
1856428.388
1856427.234
1856426.196
1856425.413
1856424.856
1856425.28
1856423.142
1856404.186
1856400.231
1856404.539
1856292.093
1856340.073
1856485.43
1856443.672
1856445.553
1856441.413
1856440.762
1856439.026
1856437.812
1856436.372
1856435.014
1856433.615
1856432.244
1856430.889
1856429.58
1856428.328
1856427.177
1856426.141
1856425.36
1856424.796
1856425.214
1856423.087
1856404.627
1856400.718
1856405.432
1856295.486
1856345.412
1856485.347
1856443.589
1856445.469
1856441.329
1856440.679
1856438.944
1856437.731
1856436.293
1856434.936
1856433.539
1856432.171
1856430.819
1856429.513
1856428.263
1856427.116
1856426.081
1856425.302
1856424.727
1856425.144
1856422.973
1856404.894
1856400.764
1856405.647
1856296.011
1856346.427
1856485.263
1856443.504
1856445.384
1856441.244
1856440.594
1856438.86
1856437.648
1856436.211
1856434.855
1856433.46
1856432.094
1856430.744
1856429.44
1856428.194
1856427.049
1856426.015
1856425.238
1856424.656
1856425.078
1856422.863
1856405.102
1856400.797
1856405.993
1856295.987
1856347.727
1856485.176
1856443.417
1856445.297
1856441.157
1856440.508
1856438.774
1856437.562
1856436.126
1856434.771
1856433.378
1856432.013
1856430.665
1856429.363
1856428.118
1856426.975
1856425.941
1856425.168
1856424.579
1856425.008
1856422.759
1856405.251
1856400.923
1856406.575
1856295.809
1856348.366
1856485.087
1856443.327
1856445.208
1856441.068
1856440.418
1856438.685
1856437.474
1856436.038
1856434.684
1856433.291
1856431.927
1856430.58
1856429.28
1856428.036
1856426.894
1856425.861
1856425.09
1856424.499
1856424.935
1856422.659
1856405.316
1856400.995
1856406.984
1856295.167
1856347.573
1856484.996
1856443.236
1856445.116
1856440.976
1856440.327
1856438.593
1856437.382
1856435.947
1856434.593
1856433.201
1856431.837
1856430.491
1856429.191
1856427.947
1856426.806
1856425.774
1856425.004
1856424.413
1856424.856
1856422.553
1856405.176
1856400.823
1856406.768
1856293.787
1856345.064
1856484.901
1856443.141
1856445.022
1856440.882
1856440.232
1856438.499
1856437.288
1856435.852
1856434.499
1856433.106
1856431.742
1856430.396
1856429.095
1856427.852
1856426.711
1856425.679
1856424.909
1856424.322
1856424.77
1856422.455
1856404.839
1856400.462
1856406.069
1856292.09
1856341.794
1856484.804
1856443.045
1856444.925
1856440.785
1856440.136
1856438.402
1856437.191
1856435.755
1856434.4
1856433.007
1856431.643
1856430.296
1856428.994
1856427.75
1856426.608
1856425.577
1856424.807
1856424.227
1856424.678
1856422.382
1856404.369
1856400.041
1856405.292
1856290.634
1856339.278
1856484.705
1856442.946
1856444.826
1856440.686
1856440.036
1856438.302
1856437.091
1856435.654
1856434.299
1856432.905
1856431.539
1856430.191
1856428.888
1856427.643
1856426.499
1856425.468
1856424.696
1856424.126
1856424.574
1856422.314
1856403.845
1856399.632
1856404.593
1856289.176
1856337.353
1856484.603
1856442.844
1856444.725
1856440.585
1856439.935
1856438.2
1856436.988
1856435.55
1856434.194
1856432.799
1856431.431
1856430.081
1856428.776
1856427.529
1856426.384
1856425.353
1856424.58
1856424.02
1856424.466
1856422.261
1856403.429
1856399.362
1856404.125
1856288.317
1856336.711
1856484.499
1856442.741
1856444.622
1856440.481
1856439.831
1856438.096
1856436.883
1856435.444
1856434.086
1856432.689
1856431.32
1856429.967
1856428.66
1856427.411
1856426.263
1856425.232
1856424.455
1856423.908
1856424.348
1856422.198
1856402.945
1856398.977
1856403.424
1856287.511
1856334.975
1856484.394
1856442.636
1856444.517
1856440.377
1856439.726
1856437.99
1856436.776
1856435.335
1856433.976
1856432.577
1856431.205
1856429.85
1856428.54
1856427.288
1856426.136
1856425.105
1856424.325
1856423.789
1856424.219
1856422.127
1856402.327
1856398.501
1856402.395
1856286.468
1856331.698
1856484.287
1856442.53
1856444.41
1856440.27
1856439.619
1856437.883
1856436.667
1856435.225
1856433.864
1856432.462
1856431.088
1856429.729
1856428.416
1856427.161
1856426.006
1856424.975
1856424.19
1856423.667
1856424.086
1856422.06
1856401.775
1856398.125
1856401.398
1856285.969
1856329.725
1856484.179
1856442.422
1856444.303
1856440.163
1856439.511
1856437.774
1856436.557
1856435.114
1856433.75
1856432.346
1856430.968
1856429.607
1856428.29
1856427.032
1856425.873
1856424.84
1856424.05
1856423.539
1856423.949
1856421.984
1856401.293
1856397.745
1856400.624
1856286.079