/*--------------------------------*- C++ -*----------------------------------*\
| =========                 |                                                 |
| \\      /  F ield         | OpenFOAM: The Open Source CFD Toolbox           |
|  \\    /   O peration     | Version:  v1912                                 |
|   \\  /    A nd           | Website:  www.openfoam.com                      |
|    \\/     M anipulation  |                                                 |
\*---------------------------------------------------------------------------*/
FoamFile
{
    version     2.0;
    format      ascii;
    class       volScalarField;
    location    "2";
    object      p;
}
// * * * * * * * * * * * * * * * * * * * * * * * * * * * * * * * * * * * * * //

dimensions      [0 2 -2 0 0 0 0];


internalField   nonuniform List<scalar> 
290400
(
1875507.352
1875441.082
1875438.14
1875428.506
1875425.546
1875422.059
1875419.754
1875417.49
1875415.493
1875413.555
1875411.704
1875409.885
1875408.114
1875406.313
1875404.598
1875402.593
1875401.018
1875397.798
1875397.338
1875384.633
1875383.216
1875343.192
1875384.099
1875091.284
1875330.79
1875483.661
1875435.894
1875435.491
1875428.057
1875425.587
1875422.273
1875419.979
1875417.674
1875415.633
1875413.654
1875411.768
1875409.918
1875408.126
1875406.306
1875404.601
1875402.615
1875401.212
1875398.207
1875398.886
1875386.081
1875385.527
1875348.245
1875402.407
1875119.312
1875407.221
1875478.252
1875433.314
1875433.454
1875427.054
1875424.969
1875421.962
1875419.812
1875417.594
1875415.597
1875413.641
1875411.771
1875409.935
1875408.164
1875406.379
1875404.744
1875402.867
1875401.692
1875399.026
1875400.47
1875388.364
1875387.969
1875352.931
1875410.088
1875132.307
1875423.402
1875473.03
1875430.507
1875431.463
1875426.05
1875424.378
1875421.668
1875419.658
1875417.52
1875415.563
1875413.629
1875411.772
1875409.947
1875408.193
1875406.433
1875404.849
1875403.046
1875402.028
1875399.565
1875401.474
1875389.864
1875390.093
1875356.379
1875416.434
1875141.689
1875437.339
1875470.693
1875428.765
1875430.038
1875425.111
1875423.71
1875421.235
1875419.367
1875417.331
1875415.44
1875413.551
1875411.728
1875409.934
1875408.212
1875406.492
1875404.966
1875403.242
1875402.354
1875400.052
1875402.233
1875390.994
1875391.807
1875358.62
1875419.703
1875146.799
1875443.717
1875468.933
1875427.293
1875428.833
1875424.249
1875423.074
1875420.792
1875419.053
1875417.112
1875415.286
1875413.447
1875411.663
1875409.901
1875408.214
1875406.53
1875405.055
1875403.392
1875402.601
1875400.41
1875402.775
1875391.856
1875393.73
1875360.905
1875423.525
1875156.253
1875458.682
1875467.825
1875426.238
1875427.914
1875423.511
1875422.487
1875420.345
1875418.713
1875416.858
1875415.099
1875413.312
1875411.572
1875409.849
1875408.199
1875406.555
1875405.128
1875403.518
1875402.802
1875400.685
1875403.176
1875392.415
1875395.348
1875362.305
1875426.259
1875162.233
1875470.389
1875466.98
1875425.393
1875427.159
1875422.869
1875421.957
1875419.921
1875418.376
1875416.596
1875414.898
1875413.162
1875411.465
1875409.781
1875408.169
1875406.562
1875405.178
1875403.613
1875402.959
1875400.889
1875403.486
1875392.738
1875396.585
1875362.873
1875428.21
1875161.123
1875475.445
1875466.345
1875424.734
1875426.55
1875422.323
1875421.486
1875419.526
1875418.051
1875416.334
1875414.689
1875413.001
1875411.346
1875409.701
1875408.126
1875406.555
1875405.211
1875403.683
1875403.082
1875401.043
1875403.729
1875392.924
1875397.399
1875363.079
1875429.674
1875157.93
1875478.867
1875465.831
1875424.196
1875426.042
1875421.853
1875421.07
1875419.165
1875417.745
1875416.079
1875414.482
1875412.837
1875411.221
1875409.612
1875408.071
1875406.535
1875405.226
1875403.732
1875403.176
1875401.161
1875403.928
1875393.057
1875398.044
1875363.153
1875430.765
1875154.648
1875480.463
1875465.409
1875423.751
1875425.615
1875421.448
1875420.701
1875418.837
1875417.46
1875415.836
1875414.279
1875412.672
1875411.092
1875409.516
1875408.008
1875406.503
1875405.226
1875403.762
1875403.243
1875401.247
1875404.076
1875393.149
1875398.5
1875363.162
1875431.457
1875152.256
1875479.756
1875465.052
1875423.375
1875425.249
1875421.094
1875420.373
1875418.539
1875417.196
1875415.607
1875414.083
1875412.509
1875410.96
1875409.415
1875407.937
1875406.46
1875405.213
1875403.775
1875403.289
1875401.311
1875404.19
1875393.254
1875398.917
1875363.475
1875432.259
1875153.916
1875483.219
1875464.743
1875423.051
1875424.93
1875420.783
1875420.08
1875418.269
1875416.951
1875415.39
1875413.895
1875412.349
1875410.828
1875409.309
1875407.858
1875406.407
1875405.186
1875403.772
1875403.314
1875401.352
1875404.273
1875393.324
1875399.34
1875363.772
1875432.637
1875155.064
1875484.698
1875464.47
1875422.766
1875424.648
1875420.505
1875419.816
1875418.021
1875416.724
1875415.186
1875413.715
1875412.193
1875410.696
1875409.201
1875407.773
1875406.344
1875405.146
1875403.752
1875403.319
1875401.367
1875404.322
1875393.316
1875399.612
1875363.686
1875432.408
1875153.16
1875479.267
1875464.226
1875422.512
1875424.396
1875420.255
1875419.575
1875417.793
1875416.513
1875414.992
1875413.541
1875412.039
1875410.563
1875409.089
1875407.682
1875406.273
1875405.095
1875403.718
1875403.308
1875401.364
1875404.357
1875393.315
1875399.827
1875363.789
1875432.916
1875153.149
1875477.594
1875464.004
1875422.282
1875424.166
1875420.027
1875419.354
1875417.582
1875416.314
1875414.809
1875413.374
1875411.889
1875410.431
1875408.974
1875407.585
1875406.193
1875405.033
1875403.671
1875403.281
1875401.345
1875404.379
1875393.291
1875400
1875363.791
1875433.72
1875152.336
1875479.731
1875463.799
1875422.071
1875423.955
1875419.817
1875419.149
1875417.384
1875416.127
1875414.633
1875413.212
1875411.742
1875410.298
1875408.857
1875407.482
1875406.105
1875404.96
1875403.61
1875403.237
1875401.302
1875404.378
1875393.17
1875399.991
1875363.071
1875433.574
1875148.035
1875480.696
1875463.608
1875421.874
1875423.758
1875419.62
1875418.956
1875417.197
1875415.948
1875414.464
1875413.054
1875411.596
1875410.165
1875408.736
1875407.374
1875406.009
1875404.877
1875403.538
1875403.18
1875401.247
1875404.364
1875393.043
1875399.956
1875362.309
1875433.301
1875143.812
1875481.795
1875463.427
1875421.689
1875423.573
1875419.435
1875418.774
1875417.019
1875415.777
1875414.301
1875412.9
1875411.451
1875410.031
1875408.612
1875407.261
1875405.906
1875404.785
1875403.454
1875403.108
1875401.179
1875404.323
1875392.935
1875399.901
1875361.813
1875433.035
1875140.336
1875479.137
1875463.255
1875421.513
1875423.397
1875419.259
1875418.6
1875416.849
1875415.612
1875414.142
1875412.748
1875411.308
1875409.896
1875408.486
1875407.144
1875405.798
1875404.684
1875403.362
1875403.023
1875401.104
1875404.256
1875392.875
1875399.733
1875361.741
1875432.772
1875139.305
1875475.422
1875463.089
1875421.344
1875423.228
1875419.089
1875418.432
1875416.684
1875415.451
1875413.987
1875412.599
1875411.165
1875409.76
1875408.357
1875407.022
1875405.683
1875404.576
1875403.261
1875402.926
1875401.02
1875404.158
1875392.843
1875399.366
1875361.972
1875432.525
1875141.102
1875474.708
1875462.928
1875421.181
1875423.064
1875418.925
1875418.269
1875416.524
1875415.294
1875413.834
1875412.451
1875411.022
1875409.622
1875408.226
1875406.896
1875405.563
1875404.461
1875403.153
1875402.82
1875400.929
1875404.045
1875392.849
1875399.078
1875362.454
1875432.236
1875145.681
1875474.817
1875462.771
1875421.022
1875422.905
1875418.766
1875418.111
1875416.367
1875415.14
1875413.683
1875412.303
1875410.879
1875409.484
1875408.092
1875406.767
1875405.439
1875404.341
1875403.039
1875402.706
1875400.831
1875403.925
1875392.846
1875398.901
1875362.842
1875431.721
1875150.129
1875473.522
1875462.617
1875420.866
1875422.749
1875418.61
1875417.955
1875416.213
1875414.988
1875413.533
1875412.157
1875410.736
1875409.344
1875407.956
1875406.634
1875405.31
1875404.215
1875402.917
1875402.585
1875400.72
1875403.799
1875392.777
1875398.738
1875362.712
1875430.853
1875150.823
1875469.885
1875462.465
1875420.713
1875422.595
1875418.456
1875417.802
1875416.061
1875414.837
1875413.385
1875412.011
1875410.592
1875409.203
1875407.818
1875406.499
1875405.177
1875404.084
1875402.791
1875402.459
1875400.606
1875403.681
1875392.694
1875398.533
1875362.44
1875430.232
1875149.877
1875466.934
1875462.314
1875420.562
1875422.444
1875418.304
1875417.651
1875415.91
1875414.688
1875413.237
1875411.865
1875410.449
1875409.062
1875407.678
1875406.361
1875405.042
1875403.95
1875402.66
1875402.328
1875400.482
1875403.558
1875392.56
1875398.034
1875361.994
1875429.592
1875147.552
1875464.839
1875462.165
1875420.412
1875422.294
1875418.154
1875417.501
1875415.761
1875414.54
1875413.09
1875411.719
1875410.304
1875408.919
1875407.537
1875406.222
1875404.904
1875403.813
1875402.525
1875402.194
1875400.356
1875403.435
1875392.413
1875397.506
1875361.484
1875428.719
1875144.118
1875459.879
1875462.017
1875420.263
1875422.145
1875418.005
1875417.352
1875415.613
1875414.392
1875412.943
1875411.574
1875410.16
1875408.776
1875407.395
1875406.08
1875404.764
1875403.674
1875402.388
1875402.056
1875400.226
1875403.303
1875392.277
1875397.06
1875361.133
1875427.622
1875140.845
1875452.967
1875461.87
1875420.116
1875421.997
1875417.857
1875417.205
1875415.465
1875414.245
1875412.797
1875411.428
1875410.015
1875408.632
1875407.252
1875405.938
1875404.623
1875403.533
1875402.249
1875401.915
1875400.096
1875403.16
1875392.174
1875396.628
1875361.049
1875426.681
1875140.094
1875446.88
1875461.723
1875419.968
1875421.85
1875417.71
1875417.057
1875415.318
1875414.098
1875412.651
1875411.283
1875409.87
1875408.488
1875407.109
1875405.795
1875404.481
1875403.391
1875402.11
1875401.772
1875399.965
1875403.005
1875392.092
1875396.227
1875361.083
1875425.8
1875141.297
1875440.607
1875461.577
1875419.822
1875421.703
1875417.563
1875416.91
1875415.171
1875413.952
1875412.505
1875411.137
1875409.726
1875408.343
1875406.965
1875405.652
1875404.338
1875403.248
1875401.969
1875401.628
1875399.834
1875402.843
1875392.047
1875395.996
1875361.346
1875425.22
1875146.055
1875442.563
1875461.43
1875419.675
1875421.556
1875417.416
1875416.764
1875415.025
1875413.806
1875412.359
1875410.992
1875409.581
1875408.199
1875406.821
1875405.509
1875404.195
1875403.105
1875401.83
1875401.486
1875399.708
1875402.694
1875392.054
1875395.956
1875361.95
1875425.619
1875153.584
1875450.664
1875461.284
1875419.529
1875421.41
1875417.27
1875416.618
1875414.879
1875413.66
1875412.214
1875410.847
1875409.436
1875408.055
1875406.677
1875405.365
1875404.053
1875402.963
1875401.689
1875401.343
1875399.574
1875402.542
1875391.974
1875395.76
1875362.058
1875425.719
1875154.41
1875450.758
1875461.138
1875419.383
1875421.264
1875417.124
1875416.472
1875414.733
1875413.514
1875412.068
1875410.702
1875409.291
1875407.91
1875406.533
1875405.222
1875403.91
1875402.82
1875401.548
1875401.201
1875399.438
1875402.404
1875391.825
1875395.376
1875361.64
1875425.061
1875150.229
1875446.887
1875460.992
1875419.237
1875421.118
1875416.978
1875416.325
1875414.587
1875413.369
1875411.923
1875410.557
1875409.147
1875407.766
1875406.39
1875405.078
1875403.767
1875402.677
1875401.407
1875401.059
1875399.301
1875402.271
1875391.651
1875394.853
1875361.025
1875424.097
1875144.915
1875442.714
1875460.847
1875419.091
1875420.972
1875416.831
1875416.179
1875414.441
1875413.223
1875411.777
1875410.412
1875409.002
1875407.622
1875406.246
1875404.935
1875403.625
1875402.535
1875401.266
1875400.917
1875399.164
1875402.135
1875391.488
1875394.312
1875360.454
1875422.891
1875139.539
1875435.486
1875460.7
1875418.944
1875420.825
1875416.685
1875416.033
1875414.295
1875413.077
1875411.632
1875410.266
1875408.857
1875407.478
1875406.103
1875404.792
1875403.483
1875402.393
1875401.126
1875400.774
1875399.027
1875401.982
1875391.352
1875393.794
1875360.094
1875421.308
1875138.003
1875427.515
1875460.554
1875418.798
1875420.679
1875416.539
1875415.887
1875414.149
1875412.931
1875411.486
1875410.121
1875408.713
1875407.334
1875405.959
1875404.649
1875403.341
1875402.252
1875400.986
1875400.631
1875398.892
1875401.819
1875391.305
1875393.659
1875360.427
1875420.757
1875144.801
1875428.726
1875460.407
1875418.651
1875420.532
1875416.392
1875415.74
1875414.002
1875412.785
1875411.34
1875409.976
1875408.568
1875407.189
1875405.816
1875404.506
1875403.199
1875402.11
1875400.846
1875400.49
1875398.76
1875401.662
1875391.323
1875393.982
1875361.304
1875421.604
1875155.966
1875438.28
1875460.26
1875418.504
1875420.385
1875416.245
1875415.593
1875413.855
1875412.638
1875411.194
1875409.83
1875408.422
1875407.044
1875405.671
1875404.363
1875403.056
1875401.968
1875400.704
1875400.346
1875398.614
1875401.491
1875391.219
1875394.205
1875361.601
1875422.415
1875159.743
1875444.449
1875460.113
1875418.356
1875420.237
1875416.097
1875415.445
1875413.708
1875412.491
1875411.047
1875409.683
1875408.276
1875406.899
1875405.526
1875404.219
1875402.912
1875401.824
1875400.561
1875400.202
1875398.464
1875401.336
1875391.056
1875394.387
1875361.635
1875423.43
1875158.536
1875447.599
1875459.965
1875418.208
1875420.089
1875415.949
1875415.297
1875413.56
1875412.343
1875410.899
1875409.536
1875408.129
1875406.752
1875405.38
1875404.073
1875402.767
1875401.68
1875400.415
1875400.057
1875398.31
1875401.186
1875390.843
1875394.457
1875361.431
1875423.864
1875155.311
1875446.932
1875459.816
1875418.059
1875419.94
1875415.8
1875415.148
1875413.411
1875412.195
1875410.751
1875409.388
1875407.981
1875406.605
1875405.233
1875403.926
1875402.621
1875401.534
1875400.267
1875399.91
1875398.15
1875401.034
1875390.598
1875394.498
1875361.001
1875423.602
1875151.13
1875445.913
1875459.667
1875417.91
1875419.791
1875415.651
1875414.999
1875413.262
1875412.045
1875410.602
1875409.239
1875407.832
1875406.456
1875405.085
1875403.778
1875402.472
1875401.386
1875400.118
1875399.764
1875397.996
1875400.895
1875390.43
1875394.7
1875360.948
1875423.996
1875152.874
1875453.434
1875459.516
1875417.76
1875419.641
1875415.501
1875414.849
1875413.112
1875411.895
1875410.452
1875409.089
1875407.682
1875406.306
1875404.935
1875403.628
1875402.322
1875401.237
1875399.968
1875399.615
1875397.84
1875400.75
1875390.269
1875394.808
1875360.941
1875424.916
1875156.764
1875462.894
1875459.366
1875417.609
1875419.49
1875415.35
1875414.698
1875412.961
1875411.745
1875410.301
1875408.938
1875407.531
1875406.155
1875404.783
1875403.477
1875402.17
1875401.085
1875399.815
1875399.465
1875397.682
1875400.605
1875390.087
1875394.879
1875360.851
1875425.806
1875156.474
1875464.112
1875459.214
1875417.458
1875419.339
1875415.199
1875414.547
1875412.81
1875411.593
1875410.149
1875408.786
1875407.379
1875406.002
1875404.63
1875403.323
1875402.016
1875400.931
1875399.659
1875399.313
1875397.524
1875400.468
1875389.891
1875394.909
1875360.636
1875425.955
1875153.353
1875458.537
1875459.062
1875417.306
1875419.187
1875415.047
1875414.395
1875412.658
1875411.441
1875409.996
1875408.633
1875407.225
1875405.848
1875404.475
1875403.168
1875401.86
1875400.775
1875399.502
1875399.159
1875397.364
1875400.333
1875389.661
1875394.664
1875359.973
1875424.966
1875149.385
1875452.647
1875458.91
1875417.153
1875419.035
1875414.894
1875414.243
1875412.505
1875411.288
1875409.843
1875408.479
1875407.071
1875405.693
1875404.32
1875403.012
1875401.703
1875400.617
1875399.342
1875399.002
1875397.204
1875400.199
1875389.44
1875394.121
1875359.243
1875424.132
1875146.685
1875449.526
1875458.757
1875417.001
1875418.882
1875414.742
1875414.09
1875412.352
1875411.134
1875409.689
1875408.324
1875406.916
1875405.537
1875404.163
1875402.854
1875401.544
1875400.458
1875399.182
1875398.845
1875397.045
1875400.069
1875389.244
1875393.547
1875358.731
1875423.99
1875143.327
1875448.038
1875458.603
1875416.848
1875418.729
1875414.589
1875413.937
1875412.198
1875410.98
1875409.535
1875408.169
1875406.76
1875405.38
1875404.005
1875402.695
1875401.383
1875400.296
1875399.019
1875398.683
1875396.881
1875399.924
1875389.009
1875393.069
1875357.907
1875423.318
1875137.145
1875444.943
1875458.45
1875416.694
1875418.576
1875414.436
1875413.783
1875412.045
1875410.826
1875409.38
1875408.014
1875406.604
1875405.223
1875403.846
1875402.535
1875401.222
1875400.134
1875398.856
1875398.52
1875396.718
1875399.77
1875388.827
1875392.793
1875357.367
1875422.677
1875133.394
1875442.062
1875458.296
1875416.541
1875418.422
1875414.282
1875413.63
1875411.891
1875410.672
1875409.225
1875407.858
1875406.447
1875405.065
1875403.687
1875402.374
1875401.061
1875399.971
1875398.692
1875398.353
1875396.556
1875399.595
1875388.708
1875392.549
1875357.528
1875422.397
1875134.357
1875439.845
1875458.143
1875416.388
1875418.27
1875414.13
1875413.477
1875411.738
1875410.518
1875409.071
1875407.702
1875406.29
1875404.907
1875403.528
1875402.214
1875400.899
1875399.807
1875398.527
1875398.184
1875396.393
1875399.403
1875388.629
1875392.292
1875358.069
1875422.348
1875140.768
1875441.543
1875457.99
1875416.236
1875418.117
1875413.977
1875413.324
1875411.585
1875410.364
1875408.916
1875407.547
1875406.134
1875404.749
1875403.369
1875402.053
1875400.736
1875399.643
1875398.363
1875398.015
1875396.23
1875399.213
1875388.553
1875392.284
1875358.5
1875422.306
1875147.634
1875445.62
1875457.838
1875416.084
1875417.965
1875413.825
1875413.172
1875411.432
1875410.211
1875408.762
1875407.392
1875405.977
1875404.592
1875403.209
1875401.892
1875400.574
1875399.478
1875398.197
1875397.845
1875396.059
1875399.022
1875388.401
1875392.415
1875358.457
1875422.001
1875148.732
1875445.068
1875457.686
1875415.932
1875417.814
1875413.674
1875413.021
1875411.28
1875410.059
1875408.609
1875407.238
1875405.822
1875404.434
1875403.05
1875401.731
1875400.411
1875399.314
1875398.03
1875397.677
1875395.888
1875398.844
1875388.233
1875392.454
1875358.425
1875422.12
1875148.337
1875443.223
1875457.536
1875415.782
1875417.664
1875413.524
1875412.87
1875411.129
1875409.907
1875408.456
1875407.084
1875405.667
1875404.278
1875402.892
1875401.571
1875400.249
1875399.15
1875397.864
1875397.509
1875395.718
1875398.677
1875388.061
1875392.281
1875358.338
1875422.523
1875148.77
1875445.874
1875457.386
1875415.633
1875417.515
1875413.375
1875412.721
1875410.98
1875409.757
1875408.305
1875406.931
1875405.513
1875404.122
1875402.735
1875401.411
1875400.087
1875398.986
1875397.699
1875397.345
1875395.55
1875398.527
1875387.875
1875391.987
1875357.919
1875422.792
1875147.793
1875450.415
1875457.238
1875415.486
1875417.368
1875413.228
1875412.574
1875410.832
1875409.608
1875408.155
1875406.78
1875405.36
1875403.968
1875402.578
1875401.253
1875399.927
1875398.824
1875397.534
1875397.181
1875395.381
1875398.384
1875387.646
1875391.641
1875357.047
1875422.591
1875143.396
1875451.656
1875457.092
1875415.34
1875417.222
1875413.082
1875412.428
1875410.686
1875409.461
1875408.007
1875406.631
1875405.209
1875403.815
1875402.423
1875401.096
1875399.767
1875398.663
1875397.37
1875397.02
1875395.216
1875398.249
1875387.428
1875391.27
1875356.236
1875422.134
1875137.124
1875449.501
1875456.948
1875415.197
1875417.079
1875412.939
1875412.284
1875410.541
1875409.316
1875407.861
1875406.483
1875405.06
1875403.664
1875402.27
1875400.941
1875399.61
1875398.503
1875397.208
1875396.859
1875395.053
1875398.104
1875387.221
1875390.723
1875355.641
1875421.008
1875132.085
1875444.732
1875456.807
1875415.056
1875416.938
1875412.798
1875412.143
1875410.399
1875409.173
1875407.717
1875406.338
1875404.913
1875403.515
1875402.119
1875400.788
1875399.454
1875398.346
1875397.05
1875396.7
1875394.897
1875397.956
1875387.063
1875390.202
1875355.283
1875419.837
1875131.986
1875441.993
1875456.668
1875414.917
1875416.799
1875412.659
1875412.004
1875410.26
1875409.033
1875407.576
1875406.196
1875404.769
1875403.37
1875401.972
1875400.638
1875399.302
1875398.192
1875396.894
1875396.544
1875394.745
1875397.805
1875386.94
1875389.828
1875355.162
1875419.551
1875134.924
1875444.174
1875456.532
1875414.782
1875416.663
1875412.524
1875411.868
1875410.124
1875408.896
1875407.438
1875406.057
1875404.628
1875403.227
1875401.827
1875400.492
1875399.154
1875398.042
1875396.743
1875396.393
1875394.597
1875397.66
1875386.852
1875389.709
1875355.458
1875420.596
1875138.087
1875449.095
1875456.399
1875414.649
1875416.531
1875412.391
1875411.735
1875409.991
1875408.762
1875407.303
1875405.921
1875404.491
1875403.088
1875401.687
1875400.349
1875399.01
1875397.896
1875396.596
1875396.248
1875394.455
1875397.535
1875386.739
1875389.619
1875355.556
1875421.52
1875137.411
1875450.299
1875456.269
1875414.52
1875416.402
1875412.262
1875411.606
1875409.861
1875408.632
1875407.172
1875405.789
1875404.358
1875402.954
1875401.551
1875400.211
1875398.87
1875397.755
1875396.452
1875396.105
1875394.305
1875397.404
1875386.468
1875389.048
1875354.471
1875420.199
1875130.14
1875443.182
1875456.143
1875414.394
1875416.276
1875412.136
1875411.48
1875409.735
1875408.505
1875407.045
1875405.661
1875404.229
1875402.824
1875401.419
1875400.079
1875398.735
1875397.619
1875396.315
1875395.969
1875394.165
1875397.293
1875386.21
1875388.459
1875353.425
1875418.522
1875123.403
1875432.343
1875456.021
1875414.272
1875416.154
1875412.014
1875411.358
1875409.612
1875408.383
1875406.922
1875405.537
1875404.105
1875402.699
1875401.293
1875399.952
1875398.607
1875397.49
1875396.184
1875395.841
1875394.035
1875397.185
1875386.018
1875388.14
1875352.867
1875417.647
1875119.642
1875424.203
1875455.903
1875414.154
1875416.036
1875411.896
1875411.239
1875409.494
1875408.264
1875406.803
1875405.418
1875403.985
1875402.579
1875401.173
1875399.831
1875398.486
1875397.368
1875396.062
1875395.719
1875393.914
1875397.076
1875385.884
1875387.979
1875352.503
1875417.24
1875118.428
1875422.647
1875455.788
1875414.039
1875415.921
1875411.781
1875411.125
1875409.379
1875408.149
1875406.688
1875405.303
1875403.871
1875402.464
1875401.058
1875399.716
1875398.371
1875397.254
1875395.948
1875395.604
1875393.801
1875396.959
1875385.784
1875387.791
1875352.368
1875417.005
1875119.386
1875423.948
1875455.678
1875413.928
1875415.81
1875411.67
1875411.014
1875409.268
1875408.039
1875406.578
1875405.194
1875403.761
1875402.355
1875400.95
1875399.608
1875398.264
1875397.146
1875395.841
1875395.495
1875393.696
1875396.832
1875385.706
1875387.659
1875352.578
1875417.016
1875122.424
1875426.387
1875455.571
1875413.821
1875415.703
1875411.563
1875410.907
1875409.162
1875407.933
1875406.472
1875405.088
1875403.657
1875402.252
1875400.847
1875399.506
1875398.163
1875397.046
1875395.743
1875395.396
1875393.603
1875396.717
1875385.696
1875387.87
1875353.291
1875417.705
1875126.59
1875428.079
1875455.468
1875413.718
1875415.6
1875411.46
1875410.804
1875409.059
1875407.83
1875406.371
1875404.988
1875403.557
1875402.153
1875400.75
1875399.411
1875398.07
1875396.954
1875395.653
1875395.302
1875393.514
1875396.601
1875385.654
1875388.06
1875353.682
1875417.837
1875128.654
1875425.952
1875455.368
1875413.618
1875415.5
1875411.36
1875410.704
1875408.959
1875407.732
1875406.273
1875404.891
1875403.462
1875402.06
1875400.659
1875399.322
1875397.982
1875396.868
1875395.569
1875395.216
1875393.432
1875396.496
1875385.603
1875388.067
1875353.811
1875417.591
1875130.173
1875425.085
1875455.272
1875413.521
1875415.403
1875411.263
1875410.607
1875408.863
1875407.636
1875406.179
1875404.799
1875403.372
1875401.971
1875400.573
1875399.238
1875397.901
1875396.789
1875395.493
1875395.138
1875393.359
1875396.402
1875385.558
1875387.925
1875353.934
1875417.43
1875130.757
1875423.742
1875455.178
1875413.427
1875415.309
1875411.169
1875410.514
1875408.77
1875407.544
1875406.088
1875404.71
1875403.285
1875401.887
1875400.491
1875399.158
1875397.825
1875396.715
1875395.422
1875395.066
1875393.289
1875396.309
1875385.495
1875387.78
1875353.876
1875417.076
1875130.716
1875422.796
1875455.087
1875413.335
1875415.217
1875411.077
1875410.422
1875408.68
1875407.455
1875406.001
1875404.624
1875403.201
1875401.806
1875400.413
1875399.084
1875397.754
1875396.646
1875395.358
1875395
1875393.23
1875396.231
1875385.498
1875387.964
1875354.245
1875417.385
1875133.762
1875428.159
1875454.998
1875413.246
1875415.127
1875410.987
1875410.333
1875408.592
1875407.368
1875405.915
1875404.54
1875403.12
1875401.728
1875400.338
1875399.012
1875397.686
1875396.582
1875395.297
1875394.94
1875393.175
1875396.156
1875385.511
1875388.26
1875354.743
1875417.976
1875137.336
1875435.277
1875454.912
1875413.158
1875415.04
1875410.9
1875410.246
1875408.505
1875407.283
1875405.832
1875404.459
1875403.041
1875401.652
1875400.265
1875398.943
1875397.621
1875396.52
1875395.24
1875394.88
1875393.119
1875396.074
1875385.477
1875388.432
1875354.913
1875417.945
1875138.771
1875436.541
1875454.826
1875413.072
1875414.953
1875410.813
1875410.16
1875408.42
1875407.199
1875405.749
1875404.379
1875402.964
1875401.577
1875400.194
1875398.876
1875397.558
1875396.459
1875395.184
1875394.823
1875393.067
1875395.995
1875385.474
1875388.677
1875355.22
1875417.947
1875141.514
1875436.609
1875454.741
1875412.987
1875414.868
1875410.728
1875410.075
1875408.336
1875407.116
1875405.668
1875404.3
1875402.887
1875401.503
1875400.124
1875398.809
1875397.495
1875396.4
1875395.129
1875394.767
1875393.02
1875395.921
1875385.502
1875388.9
1875355.501
1875417.855
1875145.17
1875438.495
1875454.657
1875412.902
1875414.783
1875410.643
1875409.99
1875408.252
1875407.033
1875405.587
1875404.221
1875402.81
1875401.43
1875400.053
1875398.742
1875397.432
1875396.339
1875395.072
1875394.707
1875392.967
1875395.829
1875385.496
1875388.852
1875355.575
1875417.106
1875147.543
1875437.799
1875454.573
1875412.817
1875414.698
1875410.558
1875409.906
1875408.168
1875406.951
1875405.506
1875404.141
1875402.733
1875401.355
1875399.982
1875398.674
1875397.367
1875396.278
1875395.015
1875394.648
1875392.92
1875395.747
1875385.568
1875388.879
1875356.321
1875417.116
1875154.028
1875442.71
1875454.488
1875412.732
1875414.613
1875410.473
1875409.821
1875408.084
1875406.867
1875405.424
1875404.061
1875402.655
1875401.28
1875399.909
1875398.603
1875397.301
1875396.213
1875394.955
1875394.585
1875392.867
1875395.664
1875385.617
1875388.941
1875356.935
1875417.097
1875159.846
1875447.015
1875454.403
1875412.646
1875414.527
1875410.387
1875409.736
1875407.999
1875406.783
1875405.341
1875403.98
1875402.576
1875401.202
1875399.834
1875398.531
1875397.23
1875396.145
1875394.89
1875394.518
1875392.802
1875395.575
1875385.555
1875388.961
1875356.721
1875416.459
1875159.936
1875445.781
1875454.316
1875412.559
1875414.44
1875410.3
1875409.649
1875407.913
1875406.698
1875405.257
1875403.897
1875402.494
1875401.122
1875399.756
1875398.454
1875397.157
1875396.073
1875394.82
1875394.448
1875392.734
1875395.497
1875385.497
1875389.059
1875356.694
1875416.632
1875160.214
1875447.677
1875454.229
1875412.471
1875414.352
1875410.212
1875409.561
1875407.826
1875406.611
1875405.171
1875403.811
1875402.41
1875401.039
1875399.675
1875398.375
1875397.079
1875395.996
1875394.745
1875394.372
1875392.659
1875395.412
1875385.43
1875389.15
1875356.998
1875417.468
1875161.062
1875449.747
1875454.14
1875412.382
1875414.263
1875410.123
1875409.472
1875407.737
1875406.523
1875405.083
1875403.724
1875402.323
1875400.953
1875399.59
1875398.291
1875396.996
1875395.914
1875394.664
1875394.292
1875392.579
1875395.331
1875385.358
1875389.258
1875357.283
1875418.27
1875161.169
1875449.292
1875454.049
1875412.291
1875414.172
1875410.032
1875409.381
1875407.646
1875406.432
1875404.992
1875403.634
1875402.234
1875400.864
1875399.501
1875398.203
1875396.908
1875395.827
1875394.578
1875394.206
1875392.492
1875395.245
1875385.248
1875389.208
1875357.194
1875418.282
1875159.581
1875445.587
1875453.957
1875412.199
1875414.08
1875409.94
1875409.289
1875407.554
1875406.34
1875404.9
1875403.542
1875402.141
1875400.772
1875399.409
1875398.11
1875396.816
1875395.735
1875394.485
1875394.113
1875392.399
1875395.157
1875385.123
1875388.987
1875356.854
1875417.699
1875157.294
1875441.076
1875453.863
1875412.105
1875413.986
1875409.846
1875409.195
1875407.46
1875406.246
1875404.806
1875403.447
1875402.046
1875400.677
1875399.313
1875398.014
1875396.719
1875395.637
1875394.387
1875394.016
1875392.304
1875395.07
1875385.015
1875388.642
1875356.533
1875417.169
1875155.727
1875439.086
1875453.767
1875412.01
1875413.89
1875409.75
1875409.1
1875407.364
1875406.15
1875404.709
1875403.35
1875401.949
1875400.578
1875399.213
1875397.913
1875396.617
1875395.535
1875394.284
1875393.913
1875392.202
1875394.97
1875384.903
1875388.233
1875356.247
1875416.827
1875154.126
1875438.706
1875453.67
1875411.913
1875413.794
1875409.654
1875409.003
1875407.267
1875406.052
1875404.611
1875403.251
1875401.848
1875400.476
1875399.11
1875397.809
1875396.512
1875395.428
1875394.177
1875393.805
1875392.1
1875394.875
1875384.836
1875388.039
1875356.202
1875416.951
1875153.794
1875441.249
1875453.572
1875411.815
1875413.696
1875409.556
1875408.905
1875407.168
1875405.953
1875404.511
1875403.149
1875401.746
1875400.372
1875399.005
1875397.701
1875396.402
1875395.317
1875394.065
1875393.693
1875391.991
1875394.771
1875384.748
1875387.764
1875355.938
1875416.59
1875153.281
1875440.726
1875453.473
1875411.716
1875413.597
1875409.457
1875408.806
1875407.069
1875405.852
1875404.409
1875403.047
1875401.641
1875400.266
1875398.896
1875397.591
1875396.289
1875395.202
1875393.948
1875393.574
1875391.875
1875394.655
1875384.623
1875387.251
1875355.536
1875415.57
1875151.737
1875435.418
1875453.373
1875411.616
1875413.497
1875409.357
1875408.706
1875406.968
1875405.751
1875404.307
1875402.942
1875401.535
1875400.158
1875398.786
1875397.478
1875396.174
1875395.084
1875393.829
1875393.454
1875391.759
1875394.542
1875384.515
1875386.846
1875355.279
1875414.589
1875150.967
1875432.222
1875453.272
1875411.516
1875413.397
1875409.257
1875408.605
1875406.867
1875405.649
1875404.203
1875402.837
1875401.428
1875400.049
1875398.674
1875397.363
1875396.056
1875394.963
1875393.706
1875393.33
1875391.636
1875394.425
1875384.4
1875386.563
1875354.91
1875413.878
1875151.243
1875431.981