/*--------------------------------*- C++ -*----------------------------------*\
| =========                 |                                                 |
| \\      /  F ield         | OpenFOAM: The Open Source CFD Toolbox           |
|  \\    /   O peration     | Version:  v1912                                 |
|   \\  /    A nd           | Website:  www.openfoam.com                      |
|    \\/     M anipulation  |                                                 |
\*---------------------------------------------------------------------------*/
FoamFile
{
    version     2.0;
    format      ascii;
    class       volScalarField;
    location    "7";
    object      p;
}
// * * * * * * * * * * * * * * * * * * * * * * * * * * * * * * * * * * * * * //

dimensions      [0 2 -2 0 0 0 0];


internalField   nonuniform List<scalar> 
290400
(
1853147.876
1853081.605
1853078.663
1853069.03
1853066.07
1853062.584
1853060.282
1853058.021
1853056.027
1853054.096
1853052.25
1853050.444
1853048.672
1853046.914
1853045.144
1853043.332
1853041.376
1853039.187
1853036.412
1853030.933
1853009.117
1852999.523
1852986.699
1852867.828
1852859.997
1853124.186
1853076.418
1853076.015
1853068.581
1853066.112
1853062.8
1853060.507
1853058.206
1853056.17
1853054.197
1853052.316
1853050.481
1853048.686
1853046.915
1853045.15
1853043.383
1853041.568
1853039.744
1853037.952
1853033.514
1853008.692
1853002.332
1852995.213
1852881.136
1852899.325
1853118.776
1853073.838
1853073.978
1853067.578
1853065.494
1853062.489
1853060.341
1853058.126
1853056.133
1853054.184
1853052.319
1853050.499
1853048.725
1853046.992
1853045.295
1853043.653
1853042.054
1853040.645
1853039.57
1853036.31
1853010.105
1853006.068
1853001.194
1852890.352
1852912.281
1853113.555
1853071.031
1853071.986
1853066.574
1853064.903
1853062.194
1853060.187
1853058.053
1853056.1
1853054.173
1853052.32
1853050.512
1853048.755
1853047.05
1853045.401
1853043.847
1853042.389
1853041.242
1853040.552
1853038.084
1853011.642
1853009.13
1853006.102
1852898.439
1852923.733
1853111.217
1853069.288
1853070.561
1853065.634
1853064.234
1853061.761
1853059.895
1853057.863
1853055.975
1853054.094
1853052.276
1853050.498
1853048.774
1853047.11
1853045.518
1853044.049
1853042.715
1853041.759
1853041.308
1853039.351
1853013.434
1853011.643
1853009.76
1852904.663
1852931.678
1853109.456
1853067.814
1853069.355
1853064.771
1853063.597
1853061.316
1853059.579
1853057.642
1853055.82
1853053.988
1853052.208
1853050.464
1853048.772
1853047.147
1853045.603
1853044.199
1853042.952
1853042.116
1853041.813
1853040.169
1853015.385
1853013.995
1853013.486
1852912.099
1852943.668
1853108.345
1853066.757
1853068.433
1853064.03
1853063.007
1853060.867
1853059.236
1853057.385
1853055.63
1853053.85
1853052.114
1853050.407
1853048.753
1853047.167
1853045.67
1853044.32
1853043.144
1853042.385
1853042.186
1853040.684
1853017.119
1853015.784
1853016.371
1852917.433
1852952.893
1853107.498
1853065.91
1853067.676
1853063.386
1853062.474
1853060.439
1853058.897
1853057.12
1853055.425
1853053.696
1853052.002
1853050.335
1853048.717
1853047.169
1853045.712
1853044.407
1853043.286
1853042.576
1853042.459
1853040.976
1853018.398
1853016.876
1853018.099
1852918.9
1852955.811
1853106.859
1853065.248
1853067.063
1853062.836
1853062
1853060.041
1853058.568
1853056.853
1853055.212
1853053.53
1853051.878
1853050.249
1853048.667
1853047.154
1853045.735
1853044.468
1853043.395
1853042.718
1853042.67
1853041.159
1853019.249
1853017.498
1853019.071
1852918.528
1852955.898
1853106.342
1853064.705
1853066.552
1853062.362
1853061.579
1853059.676
1853058.257
1853056.594
1853055
1853053.36
1853051.747
1853050.153
1853048.605
1853047.125
1853045.741
1853044.506
1853043.473
1853042.822
1853042.835
1853041.283
1853019.838
1853017.863
1853019.594
1852917.549
1852955.058
1853105.915
1853064.256
1853066.12
1853061.953
1853061.206
1853059.343
1853057.967
1853056.346
1853054.791
1853053.189
1853051.611
1853050.049
1853048.534
1853047.084
1853045.731
1853044.525
1853043.527
1853042.897
1853042.96
1853041.374
1853020.245
1853018.1
1853019.94
1852916.747
1852954.371
1853105.553
1853063.875
1853065.749
1853061.594
1853060.873
1853059.04
1853057.698
1853056.111
1853054.589
1853053.02
1853051.472
1853049.941
1853048.454
1853047.032
1853045.707
1853044.527
1853043.559
1853042.949
1853043.056
1853041.459
1853020.594
1853018.384
1853020.443
1852917.295
1852956.093
1853105.238
1853063.546
1853065.425
1853061.278
1853060.575
1853058.764
1853057.448
1853055.888
1853054.395
1853052.853
1853051.333
1853049.828
1853048.367
1853046.97
1853045.67
1853044.513
1853043.572
1853042.98
1853043.124
1853041.509
1853020.875
1853018.597
1853020.661
1852917.389
1852956.492
1853104.96
1853063.255
1853065.138
1853060.995
1853060.305
1853058.511
1853057.215
1853055.678
1853054.208
1853052.689
1853051.193
1853049.711
1853048.273
1853046.898
1853045.62
1853044.484
1853043.566
1853042.989
1853043.164
1853041.514
1853020.991
1853018.592
1853020.445
1852916.157
1852954.167
1853104.711
1853062.996
1853064.88
1853060.739
1853060.059
1853058.277
1853056.998
1853055.478
1853054.028
1853052.529
1853051.053
1853049.591
1853048.173
1853046.818
1853045.559
1853044.442
1853043.543
1853042.982
1853043.186
1853041.525
1853021.003
1853018.567
1853020.441
1852915.362
1852952.906
1853104.483
1853062.76
1853064.644
1853060.505
1853059.832
1853058.06
1853056.793
1853055.288
1853053.854
1853052.372
1853050.913
1853049.469
1853048.068
1853046.729
1853045.487
1853044.386
1853043.505
1853042.96
1853043.19
1853041.527
1853020.907
1853018.45
1853020.347
1852914.214
1852951.701
1853104.272
1853062.543
1853064.428
1853060.289
1853059.621
1853057.856
1853056.599
1853055.106
1853053.685
1853052.218
1853050.773
1853049.344
1853047.957
1853046.633
1853045.405
1853044.318
1853043.451
1853042.92
1853043.171
1853041.484
1853020.624
1853018.01
1853019.599
1852911.957
1852948.967
1853104.075
1853062.341
1853064.225
1853060.087
1853059.423
1853057.664
1853056.415
1853054.931
1853053.521
1853052.065
1853050.633
1853049.216
1853047.842
1853046.53
1853045.314
1853044.238
1853043.383
1853042.866
1853043.135
1853041.431
1853020.303
1853017.532
1853018.728
1852909.89
1852945.881
1853103.888
1853062.15
1853064.034
1853059.896
1853059.234
1853057.48
1853056.238
1853054.762
1853053.361
1853051.914
1853050.492
1853049.085
1853047.722
1853046.42
1853045.214
1853044.149
1853043.302
1853042.797
1853043.076
1853041.376
1853020.045
1853017.225
1853018.069
1852908.486
1852942.507
1853103.71
1853061.968
1853063.852
1853059.714
1853059.054
1853057.304
1853056.066
1853054.597
1853053.203
1853051.765
1853050.351
1853048.952
1853047.597
1853046.304
1853045.106
1853044.05
1853043.209
1853042.718
1853042.995
1853041.339
1853019.849
1853017.14
1853017.774
1852908.527
1852940.715
1853103.539
1853061.794
1853063.677
1853059.539
1853058.881
1853057.133
1853055.9
1853054.436
1853053.047
1853051.616
1853050.209
1853048.817
1853047.469
1853046.183
1853044.992
1853043.943
1853043.106
1853042.628
1853042.893
1853041.319
1853019.662
1853017.209
1853017.811
1852910.096
1852941.811
1853103.372
1853061.625
1853063.508
1853059.369
1853058.713
1853056.967
1853055.737
1853054.277
1853052.893
1853051.467
1853050.065
1853048.68
1853047.337
1853046.057
1853044.871
1853043.829
1853042.994
1853042.53
1853042.779
1853041.304
1853019.568
1853017.413
1853018.075
1852912.774
1852944.734
1853103.21
1853061.461
1853063.343
1853059.205
1853058.549
1853056.805
1853055.578
1853054.121
1853052.741
1853051.318
1853049.921
1853048.54
1853047.202
1853045.927
1853044.745
1853043.709
1853042.875
1853042.425
1853042.661
1853041.27
1853019.473
1853017.538
1853018.146
1852914.999
1852946.741
1853103.05
1853061.3
1853063.182
1853059.043
1853058.388
1853056.646
1853055.42
1853053.966
1853052.589
1853051.17
1853049.776
1853048.399
1853047.064
1853045.793
1853044.614
1853043.583
1853042.75
1853042.313
1853042.54
1853041.197
1853019.231
1853017.359
1853017.649
1852915.187
1852945.925
1853102.893
1853061.142
1853063.024
1853058.884
1853058.23
1853056.489
1853055.265
1853053.812
1853052.438
1853051.022
1853049.631
1853048.256
1853046.924
1853045.656
1853044.479
1853043.453
1853042.622
1853042.199
1853042.424
1853041.122
1853018.802
1853016.952
1853016.823
1852913.907
1852943.328
1853102.738
1853060.985
1853062.867
1853058.728
1853058.074
1853056.333
1853055.111
1853053.66
1853052.287
1853050.873
1853049.484
1853048.112
1853046.782
1853045.517
1853044.341
1853043.319
1853042.489
1853042.081
1853042.305
1853041.042
1853018.103
1853016.288
1853015.631
1852911.433
1852939.09
1853102.584
1853060.831
1853062.713
1853058.573
1853057.92
1853056.179
1853054.958
1853053.508
1853052.137
1853050.724
1853049.337
1853047.967
1853046.639
1853045.375
1853044.201
1853043.183
1853042.353
1853041.96
1853042.186
1853040.952
1853017.336
1853015.539
1853014.202
1852908.299
1852933.138
1853102.431
1853060.678
1853062.559
1853058.419
1853057.766
1853056.026
1853054.806
1853053.357
1853051.987
1853050.576
1853049.19
1853047.821
1853046.494
1853045.232
1853044.059
1853043.044
1853042.214
1853041.835
1853042.061
1853040.856
1853016.677
1853014.933
1853012.819
1852905.583
1852927.259
1853102.28
1853060.525
1853062.407
1853058.267
1853057.614
1853055.875
1853054.654
1853053.206
1853051.838
1853050.427
1853049.042
1853047.675
1853046.349
1853045.088
1853043.916
1853042.904
1853042.073
1853041.708
1853041.927
1853040.771
1853016.172
1853014.556
1853011.91
1852904.545
1852923.841
1853102.128
1853060.374
1853062.255
1853058.115
1853057.462
1853055.723
1853054.503
1853053.056
1853051.688
1853050.279
1853048.895
1853047.528
1853046.203
1853044.943
1853043.771
1853042.763
1853041.931
1853041.577
1853041.783
1853040.694
1853015.869
1853014.416
1853011.592
1852905.254
1852922.945
1853101.978
1853060.223
1853062.104
1853057.964
1853057.311
1853055.572
1853054.353
1853052.906
1853051.539
1853050.13
1853048.747
1853047.381
1853046.057
1853044.799
1853043.627
1853042.621
1853041.788
1853041.443
1853041.632
1853040.626
1853015.798
1853014.544
1853011.828
1852908.032
1852926.619
1853101.827
1853060.072
1853061.953
1853057.813
1853057.16
1853055.422
1853054.203
1853052.757
1853051.39
1853049.982
1853048.599
1853047.234
1853045.911
1853044.654
1853043.483
1853042.479
1853041.645
1853041.31
1853041.486
1853040.574
1853015.843
1853014.821
1853012.518
1852911.628
1852932.635
1853101.677
1853059.921
1853061.802
1853057.662
1853057.01
1853055.271
1853054.053
1853052.607
1853051.241
1853049.834
1853048.452
1853047.088
1853045.765
1853044.509
1853043.339
1853042.337
1853041.502
1853041.175
1853041.34
1853040.48
1853015.692
1853014.804
1853012.571
1852912.109
1852933.369
1853101.526
1853059.77
1853061.651
1853057.511
1853056.859
1853055.121
1853053.903
1853052.458
1853051.092
1853049.685
1853048.304
1853046.941
1853045.619
1853044.364
1853043.194
1853042.194
1853041.359
1853041.038
1853041.2
1853040.351
1853015.271
1853014.384
1853011.675
1852909.944
1852929.643
1853101.376
1853059.62
1853061.501
1853057.361
1853056.709
1853054.971
1853053.753
1853052.308
1853050.943
1853049.537
1853048.157
1853046.794
1853045.473
1853044.219
1853043.05
1853042.052
1853041.216
1853040.9
1853041.063
1853040.207
1853014.708
1853013.77
1853010.377
1852906.934
1852923.996
1853101.225
1853059.469
1853061.35
1853057.21
1853056.558
1853054.82
1853053.602
1853052.158
1853050.794
1853049.389
1853048.009
1853046.648
1853045.327
1853044.074
1853042.906
1853041.908
1853041.073
1853040.76
1853040.923
1853040.06
1853014.21
1853013.223
1853009.169
1852904.303
1852918.13
1853101.074
1853059.318
1853061.199
1853057.058
1853056.407
1853054.669
1853053.452
1853052.008
1853050.644
1853049.24
1853047.862
1853046.501
1853045.182
1853043.929
1853042.762
1853041.765
1853040.929
1853040.615
1853040.773
1853039.917
1853013.964
1853012.971
1853008.569
1852904.166
1852916.213
1853100.923
1853059.166
1853061.047
1853056.907
1853056.255
1853054.518
1853053.301
1853051.858
1853050.494
1853049.091
1853047.713
1853046.353
1853045.035
1853043.784
1853042.617
1853041.62
1853040.783
1853040.466
1853040.614
1853039.79
1853014.178
1853013.263
1853009.243
1852907.833
1852921.737
1853100.771
1853059.014
1853060.895
1853056.754
1853056.103
1853054.366
1853053.149
1853051.707
1853050.344
1853048.941
1853047.564
1853046.205
1853044.888
1853043.637
1853042.471
1853041.474
1853040.638
1853040.312
1853040.453
1853039.658
1853014.764
1853013.929
1853010.851
1852913.161
1852930.993
1853100.618
1853058.861
1853060.741
1853056.601
1853055.95
1853054.213
1853052.997
1853051.554
1853050.192
1853048.79
1853047.414
1853046.055
1853044.739
1853043.489
1853042.324
1853041.325
1853040.489
1853040.149
1853040.282
1853039.458
1853015.286
1853014.397
1853012.144
1852915.739
1852936.029
1853100.464
1853058.707
1853060.588
1853056.447
1853055.796
1853054.059
1853052.844
1853051.402
1853050.04
1853048.638
1853047.263
1853045.905
1853044.589
1853043.34
1853042.175
1853041.174
1853040.338
1853039.983
1853040.115
1853039.229
1853015.667
1853014.662
1853013.012
1852916.046
1852937.67
1853100.309
1853058.552
1853060.433
1853056.293
1853055.641
1853053.905
1853052.689
1853051.247
1853049.886
1853048.484
1853047.11
1853045.752
1853044.437
1853043.188
1853042.024
1853041.021
1853040.185
1853039.814
1853039.95
1853038.986
1853015.895
1853014.756
1853013.361
1852915.416
1852937.711
1853100.154
1853058.396
1853060.277
1853056.137
1853055.486
1853053.749
1853052.534
1853051.092
1853049.731
1853048.33
1853046.955
1853045.598
1853044.283
1853043.034
1853041.87
1853040.865
1853040.03
1853039.645
1853039.784
1853038.74
1853016.049
1853014.77
1853013.356
1852914.648
1852937.876
1853099.997
1853058.24
1853060.12
1853055.98
1853055.329
1853053.592
1853052.377
1853050.936
1853049.574
1853048.173
1853046.799
1853045.442
1853044.127
1853042.877
1853041.714
1853040.707
1853039.874
1853039.479
1853039.625
1853038.542
1853016.252
1853014.9
1853013.798
1852915.908
1852941.882
1853099.839
1853058.082
1853059.963
1853055.823
1853055.171
1853053.435
1853052.219
1853050.778
1853049.416
1853048.015
1853046.64
1853045.283
1853043.969
1853042.718
1853041.555
1853040.547
1853039.715
1853039.315
1853039.465
1853038.37
1853016.345
1853014.963
1853014.496
1852917.725
1852946.369
1853099.68
1853057.923
1853059.804
1853055.664
1853055.013
1853053.276
1853052.06
1853050.618
1853049.257
1853047.855
1853046.48
1853045.122
1853043.807
1853042.557
1853041.394
1853040.385
1853039.554
1853039.152
1853039.309
1853038.2
1853016.274
1853014.886
1853014.827
1852917.558
1852946.43
1853099.521
1853057.764
1853059.645
1853055.504
1853054.853
1853053.116
1853051.9
1853050.458
1853049.096
1853047.694
1853046.318
1853044.96
1853043.644
1853042.393
1853041.229
1853040.221
1853039.391
1853038.992
1853039.16
1853038.032
1853015.981
1853014.579
1853014.336
1852915.494
1852942.661
1853099.36
1853057.603
1853059.484
1853055.344
1853054.692
1853052.955
1853051.739
1853050.296
1853048.934
1853047.531
1853046.154
1853044.795
1853043.478
1853042.226
1853041.062
1853040.054
1853039.225
1853038.834
1853039.014
1853037.87
1853015.345
1853013.87
1853012.927
1852912.363
1852937.625
1853099.199
1853057.442
1853059.323
1853055.183
1853054.531
1853052.794
1853051.577
1853050.134
1853048.77
1853047.367
1853045.989
1853044.629
1853043.311
1853042.058
1853040.892
1853039.885
1853039.057
1853038.677
1853038.869
1853037.737
1853014.435
1853012.936
1853011.352
1852909.076
1852932.606
1853099.037
1853057.281
1853059.162
1853055.021
1853054.37
1853052.632
1853051.415
1853049.971
1853048.606
1853047.201
1853045.822
1853044.461
1853043.142
1853041.887
1853040.721
1853039.714
1853038.886
1853038.52
1853038.723
1853037.619
1853013.486
1853012.034
1853009.936
1852905.399
1852926.82
1853098.875
1853057.119
1853059
1853054.86
1853054.208
1853052.469
1853051.252
1853049.807
1853048.441
1853047.035
1853045.655
1853044.292
1853042.971
1853041.715
1853040.547
1853039.541
1853038.711
1853038.355
1853038.565
1853037.464
1853012.656
1853011.152
1853008.383
1852901.342
1852920.347
1853098.712
1853056.957
1853058.838
1853054.698
1853054.045
1853052.307
1853051.088
1853049.642
1853048.276
1853046.868
1853045.487
1853044.122
1853042.799
1853041.542
1853040.372
1853039.365
1853038.534
1853038.185
1853038.395
1853037.306
1853012.128
1853010.601
1853007.353
1852899.149
1852916.591
1853098.55
1853056.795
1853058.676
1853054.536
1853053.883
1853052.144
1853050.925
1853049.478
1853048.111
1853046.702
1853045.318
1853043.952
1853042.627
1853041.368
1853040.196
1853039.188
1853038.354
1853038.009
1853038.209
1853037.168
1853011.926
1853010.575
1853007.272
1852899.856
1852916.999
1853098.388
1853056.633
1853058.514
1853054.374
1853053.721
1853051.982
1853050.762
1853049.314
1853047.945
1853046.535
1853045.15
1853043.781
1853042.454
1853041.193
1853040.019
1853039.01
1853038.171
1853037.828
1853038.008
1853037.038
1853011.957
1853010.869
1853007.971
1852903.401
1852922.094
1853098.226
1853056.472
1853058.353
1853054.213
1853053.56
1853051.82
1853050.599
1853049.15
1853047.78
1853046.368
1853044.981
1853043.611
1853042.282
1853041.019
1853039.841
1853038.83
1853037.988
1853037.642
1853037.804
1853036.885
1853012.178
1853011.238
1853008.809
1852907.428
1852928.584
1853098.065
1853056.312
1853058.193
1853054.053
1853053.4
1853051.659
1853050.437
1853048.987
1853047.616
1853046.202
1853044.813
1853043.441
1853042.109
1853040.844
1853039.664
1853038.65
1853037.804
1853037.453
1853037.599
1853036.681
1853012.411
1853011.46
1853009.239
1852909.278
1852930.938
1853097.906
1853056.153
1853058.034
1853053.894
1853053.24
1853051.499
1853050.277
1853048.826
1853047.452
1853046.037
1853044.646
1853043.272
1853041.938
1853040.67
1853039.487
1853038.471
1853037.621
1853037.266
1853037.401
1853036.483
1853012.482
1853011.543
1853009.519
1852909.939
1852930.922
1853097.748
1853055.995
1853057.877
1853053.737
1853053.083
1853051.341
1853050.117
1853048.665
1853047.29
1853045.873
1853044.48
1853043.103
1853041.767
1853040.496
1853039.31
1853038.292
1853037.439
1853037.085
1853037.212
1853036.318
1853012.288
1853011.42
1853009.579
1852910.238
1852931.879
1853097.591
1853055.84
1853057.721
1853053.581
1853052.927
1853051.184
1853049.96
1853048.506
1853047.13
1853045.711
1853044.316
1853042.936
1853041.597
1853040.324
1853039.135
1853038.116
1853037.259
1853036.91
1853037.035
1853036.171
1853011.827
1853010.98
1853009.122
1852909.335
1852931.838
1853097.437
1853055.686
1853057.568
1853053.428
1853052.773
1853051.03
1853049.804
1853048.349
1853046.971
1853045.55
1853044.153
1853042.771
1853041.429
1853040.154
1853038.962
1853037.942
1853037.082
1853036.74
1853036.865
1853036.017
1853011.158
1853010.232
1853008.022
1852906.636
1852928.282
1853097.285
1853055.535
1853057.417
1853053.277
1853052.621
1853050.878
1853049.651
1853048.195
1853046.815
1853045.392
1853043.993
1853042.608
1853041.264
1853039.986
1853038.791
1853037.77
1853036.907
1853036.578
1853036.703
1853035.883
1853010.404
1853009.464
1853006.599
1852903.247
1852922.857
1853097.136
1853055.386
1853057.268
1853053.128
1853052.473
1853050.729
1853049.501
1853048.043
1853046.662
1853045.237
1853043.835
1853042.448
1853041.101
1853039.821
1853038.623
1853037.602
1853036.736
1853036.42
1853036.539
1853035.773
1853009.624
1853008.814
1853005.114
1852900.818
1852918.455
1853096.991
1853055.241
1853057.123
1853052.983
1853052.327
1853050.582
1853049.354
1853047.895
1853046.512
1853045.085
1853043.681
1853042.292
1853040.942
1853039.659
1853038.459
1853037.438
1853036.568
1853036.269
1853036.378
1853035.698
1853008.962
1853008.331
1853004.121
1852900.756
1852917.549
1853096.848
1853055.099
1853056.981
1853052.842
1853052.185
1853050.44
1853049.21
1853047.75
1853046.366
1853044.937
1853043.531
1853042.139
1853040.787
1853039.502
1853038.299
1853037.279
1853036.406
1853036.124
1853036.221
1853035.644
1853008.452
1853008.033
1853003.833
1852902.096
1852918.969
1853096.71
1853054.962
1853056.843
1853052.704
1853052.047
1853050.301
1853049.071
1853047.61
1853046.224
1853044.793
1853043.385
1853041.992
1853040.637
1853039.35
1853038.144
1853037.126
1853036.25
1853035.985
1853036.073
1853035.598
1853008.053
1853007.909
1853003.989
1852902.99
1852920.039
1853096.576
1853054.828
1853056.71
1853052.57
1853051.913
1853050.166
1853048.935
1853047.473
1853046.086
1853044.654
1853043.244
1853041.849
1853040.492
1853039.204
1853037.996
1853036.979
1853036.102
1853035.853
1853035.942
1853035.536
1853007.513
1853007.56
1853003.547
1852901.516
1852917.373
1853096.446
1853054.698
1853056.58
1853052.44
1853051.783
1853050.036
1853048.805
1853047.342
1853045.954
1853044.521
1853043.109
1853041.712
1853040.353
1853039.064
1853037.854
1853036.838
1853035.96
1853035.725
1853035.817
1853035.414
1853006.553
1853006.538
1853001.606
1852897.1
1852909.249
1853096.32
1853054.573
1853056.455
1853052.315
1853051.658
1853049.91
1853048.678
1853047.215
1853045.826
1853044.392
1853042.98
1853041.582
1853040.221
1853038.931
1853037.72
1853036.706
1853035.826
1853035.606
1853035.708
1853035.298
1853005.548
1853005.436
1852999.421
1852892.447
1852899.692
1853096.2
1853054.452
1853056.334
1853052.194
1853051.537
1853049.789
1853048.557
1853047.094
1853045.704
1853044.27
1853042.857
1853041.458
1853040.097
1853038.806
1853037.594
1853036.581
1853035.702
1853035.494
1853035.606
1853035.196
1853004.808
1853004.666
1852997.866
1852889.09
1852892.873
1853096.084
1853054.336
1853056.218
1853052.078
1853051.421
1853049.673
1853048.441
1853046.977
1853045.588
1853044.154
1853042.74
1853041.341
1853039.98
1853038.689
1853037.477
1853036.466
1853035.587
1853035.387
1853035.505
1853035.107
1853004.367
1853004.212
1852997.04
1852887.664
1852890.763
1853095.973
1853054.225
1853056.107
1853051.967
1853051.31
1853049.562
1853048.33
1853046.867
1853045.478
1853044.044
1853042.631
1853041.232
1853039.872
1853038.581
1853037.37
1853036.359
1853035.481
1853035.286
1853035.402
1853035.027
1853004.197
1853004.073
1852996.951
1852888.129
1852891.655
1853095.866
1853054.118
1853056
1853051.86
1853051.203
1853049.456
1853048.224
1853046.761
1853045.373
1853043.94
1853042.528
1853041.13
1853039.771
1853038.481
1853037.271
1853036.261
1853035.384
1853035.187
1853035.297
1853034.937
1853004.315
1853004.276
1852997.498
1852890.015
1852894.592
1853095.765
1853054.016
1853055.898
1853051.758
1853051.101
1853049.355
1853048.124
1853046.661
1853045.274
1853043.842
1853042.432
1853041.036
1853039.678
1853038.39
1853037.182
1853036.173
1853035.297
1853035.094
1853035.2
1853034.844
1853004.759
1853004.835
1852998.554
1852892.408
1852898.397
1853095.667
1853053.918
1853055.8
1853051.66
1853051.003
1853049.257
1853048.027
1853046.566
1853045.181
1853043.75
1853042.342
1853040.948
1853039.593
1853038.307
1853037.101
1853036.093
1853035.218
1853035.005
1853035.108
1853034.717
1853005.244
1853005.315
1852999.393
1852894.031
1852900.872
1853095.574
1853053.824
1853055.706
1853051.566
1853050.91
1853049.165
1853047.936
1853046.476
1853045.092
1853043.664
1853042.258
1853040.867
1853039.515
1853038.232
1853037.029
1853036.02
1853035.149
1853034.922
1853035.026
1853034.586
1853005.621
1853005.601
1852999.941
1852895.193
1852903.187
1853095.484
1853053.734
1853055.616
1853051.476
1853050.82
1853049.075
1853047.848
1853046.39
1853045.008
1853043.582
1853042.179
1853040.792
1853039.443
1853038.163
1853036.964
1853035.956
1853035.087
1853034.847
1853034.953
1853034.462
1853005.926
1853005.81
1853000.43
1852895.779
1852904.174
1853095.398
1853053.647
1853055.528
1853051.388
1853050.733
1853048.99
1853047.763
1853046.307
1853044.928
1853043.505
1853042.106
1853040.722
1853039.377
1853038.101
1853036.906
1853035.898
1853035.033
1853034.777
1853034.885
1853034.328
1853006.273
1853006.002
1853000.928
1852896.352
1852905.037
1853095.314
1853053.562
1853055.444
1853051.304
1853050.649
1853048.906
1853047.682
1853046.228
1853044.851
1853043.431
1853042.036
1853040.655
1853039.315
1853038.043
1853036.853
1853035.846
1853034.985
1853034.712
1853034.825
1853034.212
1853006.872
1853006.493
1853001.901
1852898.279
1852909.521
1853095.233
1853053.48
1853055.361
1853051.221
1853050.567
1853048.826
1853047.603
1853046.151
1853044.777
1853043.361
1853041.969
1853040.593
1853039.257
1853037.989
1853036.804
1853035.797
1853034.941
1853034.651
1853034.768
1853034.097
1853007.609
1853007.137
1853003.137
1852900.742
1852915.384
1853095.153
1853053.399
1853055.28
1853051.14
1853050.487
1853048.746
1853047.525
1853046.076
1853044.705
1853043.292
1853041.904
1853040.532
1853039.201
1853037.938
1853036.757
1853035.751
1853034.899
1853034.589
1853034.707
1853033.96
1853008.32
1853007.682
1853004.204
1852902.761
1852919.181
1853095.074
1853053.319
1853055.2
1853051.06
1853050.407
1853048.668
1853047.449
1853046.001
1853044.633
1853043.224
1853041.84
1853040.472
1853039.146
1853037.887
1853036.712
1853035.707
1853034.859
1853034.529
1853034.649
1853033.834
1853009.083
1853008.281
1853005.358
1852905.255
1852923.093
1853094.996
1853053.24
1853055.121
1853050.981
1853050.329
1853048.59
1853047.372
1853045.927
1853044.562
1853043.156
1853041.776
1853040.413
1853039.091
1853037.836
1853036.666
1853035.662
1853034.818
1853034.47
1853034.59
1853033.721
1853009.809
1853008.834
1853006.457
1852908.095
1852927.773
1853094.917
1853053.16
1853055.041
1853050.901
1853050.25
1853048.512
1853047.296
1853045.853
1853044.49
1853043.087
1853041.711
1853040.352
1853039.035
1853037.784
1853036.618
1853035.615
1853034.774
1853034.409
1853034.523
1853033.608
1853010.395
1853009.277
1853007.31
1852910.614
1852931.82
1853094.838
1853053.08
1853054.961
1853050.821
1853050.17
1853048.434
1853047.219
1853045.778
1853044.417
1853043.017
1853041.644
1853040.289
1853038.976
1853037.729
1853036.567
1853035.565
1853034.727
1853034.349
1853034.46
1853033.54
1853010.996
1853009.918
1853008.493
1852914.36
1852938.406
1853094.757
1853052.999
1853054.88
1853050.739
1853050.089
1853048.354
1853047.14
1853045.701
1853044.343
1853042.945
1853041.575
1853040.223
1853038.914
1853037.67
1853036.512
1853035.511
1853034.677
1853034.287
1853034.396
1853033.464
1853011.509
1853010.436
1853009.49
1852917.49
1852943.609
1853094.675
1853052.916
1853054.797
1853050.656
1853050.006
1853048.272
1853047.059
1853045.621
1853044.265
1853042.87
1853041.502
1853040.153
1853038.847
1853037.606
1853036.452
1853035.451
1853034.619
1853034.217
1853034.327
1853033.34
1853011.826
1853010.551
1853009.815
1852918.104
1852944.808
1853094.591
1853052.831
1853054.712
1853050.572
1853049.922
1853048.188
1853046.976
1853045.54
1853044.185
1853042.791
1853041.426
1853040.079
1853038.776
1853037.537
1853036.385
1853035.385
1853034.556
1853034.146
1853034.262
1853033.223
1853012.05
1853010.616
1853010.159
1852918.101
1852945.921
1853094.504
1853052.744
1853054.625
1853050.484
1853049.835
1853048.101
1853046.89
1853045.455
1853044.101
1853042.709
1853041.345
1853040
1853038.698
1853037.461
1853036.311
1853035.312
1853034.486
1853034.069
1853034.192
1853033.116
1853012.194
1853010.738
1853010.65
1852917.876
1852946.269
1853094.415
1853052.654
1853054.535
1853050.395
1853049.746
1853048.012
1853046.802
1853045.367
1853044.014
1853042.622
1853041.259
1853039.915
1853038.615
1853037.379
1853036.23
1853035.232
1853034.408
1853033.989
1853034.12
1853033.016
1853012.234
1853010.786
1853010.945
1852917.203
1852945.363
1853094.323
1853052.562
1853054.443
1853050.303
1853049.653
1853047.92
1853046.71
1853045.275
1853043.922
1853042.531
1853041.169
1853039.825
1853038.525
1853037.29
1853036.142
1853035.144
1853034.321
1853033.903
1853034.041
1853032.915
1853012.063
1853010.597
1853010.668
1852915.861
1852943.006
1853094.228
1853052.467
1853054.348
1853050.208
1853049.559
1853047.825
1853046.615
1853045.18
1853043.827
1853042.436
1853041.073
1853039.729
1853038.429
1853037.194
1853036.046
1853035.048
1853034.226
1853033.813
1853033.955
1853032.825
1853011.695
1853010.214
1853009.947
1852914.214
1852939.94
1853094.13
1853052.37
1853054.251
1853050.11
1853049.461
1853047.727
1853046.517
1853045.081
1853043.728
1853042.336
1853040.973
1853039.628
1853038.327
1853037.091
1853035.942
1853034.945
1853034.123
1853033.718
1853033.863
1853032.759
1853011.192
1853009.755
1853009.135
1852912.736
1852937.39
1853094.03
1853052.27
1853054.151
1853050.01
1853049.361
1853047.627
1853046.416
1853044.98
1853043.625
1853042.233
1853040.868
1853039.522
1853038.22
1853036.982
1853035.832
1853034.835
1853034.011
1853033.617
1853033.758
1853032.699
1853010.635
1853009.299
1853008.379
1852911.262
1852935.275
1853093.927
1853052.167
1853054.048
1853049.908
1853049.258
1853047.524
1853046.312
1853044.875
1853043.519
1853042.125
1853040.758
1853039.411
1853038.106
1853036.867
1853035.714
1853034.719
1853033.892
1853033.511
1853033.65
1853032.651
1853010.168
1853008.963
1853007.817
1852910.309
1852934.225
1853093.822
1853052.063
1853053.944
1853049.804
1853049.153
1853047.418
1853046.205
1853044.767
1853043.41
1853042.014
1853040.645
1853039.295
1853037.988
1853036.747
1853035.591
1853034.596
1853033.766
1853033.398
1853033.53
1853032.594
1853009.64
1853008.527
1853007.072
1852909.428
1852932.383
1853093.715
1853051.957
1853053.837
1853049.697
1853049.046
1853047.311
1853046.097
1853044.657
1853043.298
1853041.9
1853040.529
1853039.176
1853037.866
1853036.622
1853035.463
1853034.467
1853033.633
1853033.279
1853033.399
1853032.53
1853008.999
1853008.008
1853006.068
1852908.387
1852929.45
1853093.606
1853051.849
1853053.73
1853049.59
1853048.938
1853047.202
1853045.987
1853044.545
1853043.184
1853041.784
1853040.41
1853039.054
1853037.74
1853036.493
1853035.33
1853034.334
1853033.495
1853033.155
1853033.265
1853032.47
1853008.42
1853007.582
1853005.105
1852907.848
1852927.711
1853093.497
1853051.74
1853053.621
1853049.481
1853048.829
1853047.092
1853045.875
1853044.432
1853043.069
1853041.665
1853040.288
1853038.929
1853037.611
1853036.361
1853035.194
1853034.197
1853033.353
1853033.026
1853033.125
1853032.402
1853007.901
1853007.164
1853004.344
1852907.864
1852927.123
1853093.386
1853051.631
1853053.512