/*--------------------------------*- C++ -*----------------------------------*\
| =========                 |                                                 |
| \\      /  F ield         | OpenFOAM: The Open Source CFD Toolbox           |
|  \\    /   O peration     | Version:  v1912                                 |
|   \\  /    A nd           | Website:  www.openfoam.com                      |
|    \\/     M anipulation  |                                                 |
\*---------------------------------------------------------------------------*/
FoamFile
{
    version     2.0;
    format      ascii;
    class       volScalarField;
    location    "8";
    object      p;
}
// * * * * * * * * * * * * * * * * * * * * * * * * * * * * * * * * * * * * * //

dimensions      [0 2 -2 0 0 0 0];


internalField   nonuniform List<scalar> 
290400
(
1850061.031
1849994.76
1849991.817
1849982.184
1849979.225
1849975.739
1849973.437
1849971.177
1849969.184
1849967.254
1849965.409
1849963.605
1849961.833
1849960.081
1849958.307
1849956.517
1849954.524
1849952.447
1849949.442
1849944.702
1849920.515
1849913.017
1849897.035
1849793.339
1849770.016
1850037.34
1849989.573
1849989.17
1849981.736
1849979.267
1849975.955
1849973.663
1849971.362
1849969.326
1849967.354
1849965.475
1849963.642
1849961.848
1849960.083
1849958.313
1849956.572
1849954.717
1849953.028
1849950.997
1849947.488
1849919.685
1849915.438
1849904.217
1849805.168
1849804.642
1850031.931
1849986.992
1849987.133
1849980.733
1849978.649
1849975.644
1849973.497
1849971.283
1849969.29
1849967.342
1849965.478
1849963.66
1849961.887
1849960.161
1849958.458
1849956.844
1849955.205
1849953.942
1849952.627
1849950.384
1849920.892
1849918.954
1849909.822
1849813.874
1849817.042
1850026.71
1849984.186
1849985.141
1849979.729
1849978.058
1849975.35
1849973.342
1849971.209
1849969.257
1849967.331
1849965.479
1849963.673
1849961.917
1849960.219
1849958.565
1849957.04
1849955.542
1849954.549
1849953.612
1849952.207
1849922.336
1849921.916
1849914.521
1849821.668
1849828.097
1850024.372
1849982.443
1849983.715
1849978.789
1849977.389
1849974.916
1849973.051
1849971.019
1849969.132
1849967.252
1849965.435
1849963.659
1849961.935
1849960.279
1849958.682
1849957.244
1849955.867
1849955.072
1849954.37
1849953.496
1849924.131
1849924.442
1849918.205
1849827.906
1849836.188
1850022.611
1849980.969
1849982.509
1849977.925
1849976.751
1849974.471
1849972.734
1849970.798
1849968.977
1849967.145
1849965.366
1849963.624
1849961.933
1849960.315
1849958.766
1849957.393
1849956.103
1849955.429
1849954.871
1849954.31
1849926.094
1849926.812
1849921.901
1849835.094
1849847.697
1850021.499
1849979.912
1849981.587
1849977.184
1849976.162
1849974.021
1849972.391
1849970.541
1849968.785
1849967.007
1849965.271
1849963.567
1849961.914
1849960.335
1849958.832
1849957.514
1849956.293
1849955.697
1849955.24
1849954.818
1849927.854
1849928.658
1849924.787
1849840.348
1849856.554
1850020.652
1849979.064
1849980.83
1849976.539
1849975.628
1849973.593
1849972.051
1849970.275
1849968.58
1849966.852
1849965.159
1849963.494
1849961.877
1849960.335
1849958.873
1849957.599
1849956.434
1849955.885
1849955.508
1849955.103
1849929.158
1849929.823
1849926.52
1849842.075
1849859.424
1850020.012
1849978.401
1849980.217
1849975.99
1849975.154
1849973.195
1849971.722
1849970.008
1849968.367
1849966.686
1849965.034
1849963.407
1849961.826
1849960.319
1849958.895
1849957.658
1849956.54
1849956.024
1849955.714
1849955.28
1849930.029
1849930.505
1849927.477
1849842.011
1849859.454
1850019.494
1849977.858
1849979.704
1849975.515
1849974.732
1849972.829
1849971.411
1849969.748
1849968.154
1849966.515
1849964.902
1849963.31
1849961.763
1849960.289
1849958.898
1849957.695
1849956.616
1849956.126
1849955.875
1849955.4
1849930.622
1849930.909
1849927.971
1849841.281
1849858.584
1850019.068
1849977.409
1849979.272
1849975.105
1849974.358
1849972.495
1849971.12
1849969.499
1849967.944
1849966.343
1849964.765
1849963.205
1849961.69
1849960.247
1849958.887
1849957.712
1849956.668
1849956.199
1849955.996
1849955.49
1849931.025
1849931.172
1849928.286
1849840.636
1849857.94
1850018.704
1849977.027
1849978.9
1849974.746
1849974.025
1849972.192
1849970.85
1849969.263
1849967.742
1849966.172
1849964.625
1849963.095
1849961.608
1849960.193
1849958.861
1849957.713
1849956.698
1849956.25
1849956.088
1849955.573
1849931.354
1849931.45
1849928.723
1849841.084
1849859.369
1850018.389
1849976.696
1849978.575
1849974.428
1849973.726
1849971.915
1849970.599
1849969.039
1849967.546
1849966.005
1849964.485
1849962.981
1849961.52
1849960.129
1849958.822
1849957.697
1849956.709
1849956.279
1849956.154
1849955.625
1849931.601
1849931.648
1849928.886
1849841.09
1849859.574
1850018.11
1849976.405
1849978.288
1849974.145
1849973.455
1849971.661
1849970.365
1849968.828
1849967.358
1849965.84
1849964.344
1849962.863
1849961.425
1849960.056
1849958.771
1849957.667
1849956.701
1849956.288
1849956.193
1849955.637
1849931.68
1849931.636
1849928.64
1849839.913
1849857.464
1850017.86
1849976.145
1849978.029
1849973.888
1849973.208
1849971.427
1849970.147
1849968.627
1849967.177
1849965.679
1849964.203
1849962.743
1849961.323
1849959.974
1849958.709
1849957.623
1849956.676
1849956.281
1849956.213
1849955.655
1849931.647
1849931.583
1849928.541
1849839.044
1849856.141
1850017.631
1849975.909
1849977.793
1849973.654
1849972.981
1849971.208
1849969.941
1849968.436
1849967.002
1849965.521
1849964.062
1849962.619
1849961.217
1849959.885
1849958.635
1849957.566
1849956.636
1849956.259
1849956.215
1849955.663
1849931.502
1849931.43
1849928.328
1849837.855
1849854.639
1850017.42
1849975.691
1849977.575
1849973.437
1849972.768
1849971.004
1849969.747
1849968.254
1849966.833
1849965.365
1849963.921
1849962.492
1849961.105
1849959.787
1849958.552
1849957.496
1849956.581
1849956.218
1849956.195
1849955.631
1849931.181
1849930.987
1849927.534
1849835.754
1849851.743
1850017.222
1849975.488
1849977.372
1849973.234
1849972.569
1849970.81
1849969.561
1849968.078
1849966.668
1849965.212
1849963.78
1849962.364
1849960.989
1849959.683
1849958.46
1849957.416
1849956.511
1849956.164
1849956.157
1849955.588
1849930.829
1849930.51
1849926.647
1849833.855
1849848.585
1850017.034
1849975.296
1849977.18
1849973.042
1849972.38
1849970.626
1849969.383
1849967.907
1849966.506
1849965.06
1849963.638
1849962.232
1849960.867
1849959.572
1849958.358
1849957.325
1849956.429
1849956.096
1849956.096
1849955.538
1849930.555
1849930.199
1849925.999
1849832.614
1849845.475
1850016.855
1849975.113
1849976.997
1849972.859
1849972.199
1849970.449
1849969.211
1849967.742
1849966.347
1849964.909
1849963.495
1849962.098
1849960.742
1849959.455
1849958.25
1849957.225
1849956.335
1849956.016
1849956.014
1849955.502
1849930.365
1849930.103
1849925.743
1849832.717
1849844.091
1850016.683
1849974.938
1849976.821
1849972.683
1849972.025
1849970.277
1849969.044
1849967.579
1849966.191
1849964.759
1849963.352
1849961.962
1849960.613
1849959.333
1849958.134
1849957.117
1849956.231
1849955.925
1849955.911
1849955.478
1849930.208
1849930.156
1849925.841
1849834.21
1849845.436
1850016.516
1849974.769
1849976.652
1849972.513
1849971.857
1849970.111
1849968.88
1849967.42
1849966.036
1849964.61
1849963.208
1849961.824
1849960.48
1849959.207
1849958.012
1849957.003
1849956.119
1849955.826
1849955.798
1849955.458
1849930.139
1849930.332
1849926.163
1849836.653
1849848.501
1850016.352
1849974.604
1849976.486
1849972.347
1849971.692
1849969.948
1849968.72
1849967.263
1849965.883
1849964.461
1849963.063
1849961.684
1849960.344
1849959.076
1849957.885
1849956.882
1849956
1849955.72
1849955.68
1849955.42
1849930.05
1849930.425
1849926.283
1849838.623
1849850.66
1850016.192
1849974.442
1849976.324
1849972.185
1849971.531
1849969.788
1849968.562
1849967.107
1849965.731
1849964.312
1849962.918
1849961.542
1849960.206
1849958.941
1849957.754
1849956.755
1849955.874
1849955.608
1849955.56
1849955.35
1849929.792
1849930.222
1849925.823
1849838.713
1849850.047
1850016.034
1849974.283
1849976.165
1849972.026
1849971.372
1849969.63
1849968.406
1849966.953
1849965.579
1849964.163
1849962.771
1849961.398
1849960.065
1849958.803
1849957.619
1849956.625
1849955.745
1849955.494
1849955.445
1849955.281
1849929.324
1849929.769
1849924.973
1849837.366
1849847.48
1850015.879
1849974.126
1849976.008
1849971.869
1849971.215
1849969.474
1849968.251
1849966.8
1849965.428
1849964.013
1849962.624
1849961.253
1849959.923
1849958.663
1849957.48
1849956.491
1849955.612
1849955.377
1849955.328
1849955.209
1849928.586
1849929.049
1849923.729
1849834.861
1849843.132
1850015.724
1849973.971
1849975.853
1849971.713
1849971.06
1849969.319
1849968.098
1849966.648
1849965.277
1849963.864
1849962.477
1849961.108
1849959.779
1849958.521
1849957.34
1849956.354
1849955.476
1849955.257
1849955.211
1849955.127
1849927.777
1849928.24
1849922.255
1849831.754
1849837.249
1850015.571
1849973.817
1849975.699
1849971.559
1849970.906
1849969.166
1849967.945
1849966.496
1849965.126
1849963.715
1849962.329
1849960.961
1849959.634
1849958.378
1849957.197
1849956.216
1849955.338
1849955.134
1849955.087
1849955.039
1849927.081
1849927.579
1849920.867
1849829.091
1849831.658
1850015.419
1849973.664
1849975.546
1849971.406
1849970.753
1849969.013
1849967.793
1849966.345
1849964.976
1849963.566
1849962.181
1849960.815
1849959.488
1849958.234
1849957.054
1849956.075
1849955.197
1849955.007
1849954.955
1849954.958
1849926.562
1849927.156
1849919.983
1849828.024
1849828.594
1850015.267
1849973.512
1849975.393
1849971.253
1849970.601
1849968.861
1849967.642
1849966.195
1849964.826
1849963.417
1849962.033
1849960.668
1849959.342
1849958.089
1849956.91
1849955.934
1849955.055
1849954.876
1849954.812
1849954.883
1849926.268
1849926.995
1849919.726
1849828.655
1849828.164
1850015.115
1849973.36
1849975.242
1849971.102
1849970.449
1849968.71
1849967.491
1849966.044
1849964.677
1849963.268
1849961.885
1849960.52
1849959.195
1849957.944
1849956.765
1849955.792
1849954.912
1849954.742
1849954.663
1849954.813
1849926.213
1849927.107
1849920.023
1849831.184
1849831.829
1850014.964
1849973.209
1849975.09
1849970.95
1849970.298
1849968.559
1849967.34
1849965.894
1849964.527
1849963.119
1849961.737
1849960.373
1849959.049
1849957.799
1849956.621
1849955.65
1849954.77
1849954.609
1849954.518
1849954.754
1849926.264
1849927.352
1849920.701
1849834.374
1849837.387
1850014.814
1849973.058
1849974.939
1849970.799
1849970.146
1849968.408
1849967.189
1849965.744
1849964.378
1849962.971
1849961.589
1849960.226
1849958.903
1849957.654
1849956.477
1849955.508
1849954.626
1849954.472
1849954.373
1849954.655
1849926.121
1849927.318
1849920.751
1849834.801
1849838.125
1850014.663
1849972.907
1849974.788
1849970.648
1849969.995
1849968.257
1849967.039
1849965.594
1849964.228
1849962.822
1849961.441
1849960.079
1849958.757
1849957.509
1849956.332
1849955.365
1849954.484
1849954.335
1849954.233
1849954.525
1849925.71
1849926.894
1849919.888
1849832.831
1849834.643
1850014.512
1849972.755
1849974.636
1849970.496
1849969.844
1849968.106
1849966.888
1849965.444
1849964.079
1849962.673
1849961.294
1849959.932
1849958.611
1849957.364
1849956.188
1849955.222
1849954.341
1849954.196
1849954.097
1849954.38
1849925.163
1849926.28
1849918.645
1849830.077
1849829.294
1850014.36
1849972.604
1849974.485
1849970.345
1849969.693
1849967.955
1849966.738
1849965.294
1849963.929
1849962.525
1849961.146
1849959.785
1849958.465
1849957.219
1849956.044
1849955.079
1849954.197
1849954.055
1849953.956
1849954.228
1849924.698
1849925.747
1849917.536
1849827.736
1849824.004
1850014.209
1849972.452
1849974.333
1849970.193
1849969.541
1849967.803
1849966.586
1849965.143
1849963.779
1849962.375
1849960.997
1849959.638
1849958.319
1849957.073
1849955.899
1849954.935
1849954.053
1849953.908
1849953.806
1849954.077
1849924.507
1849925.529
1849917.089
1849827.717
1849822.725
1850014.057
1849972.3
1849974.181
1849970.04
1849969.389
1849967.651
1849966.435
1849964.992
1849963.629
1849962.226
1849960.848
1849959.49
1849958.172
1849956.927
1849955.754
1849954.789
1849953.908
1849953.757
1849953.646
1849953.935
1849924.777
1849925.851
1849917.861
1849831.087
1849828.26
1850013.904
1849972.147
1849974.027
1849969.887
1849969.236
1849967.499
1849966.282
1849964.84
1849963.477
1849962.075
1849960.699
1849959.341
1849958.024
1849956.78
1849955.608
1849954.642
1849953.761
1849953.6
1849953.483
1849953.784
1849925.403
1849926.537
1849919.477
1849835.925
1849836.977
1850013.75
1849971.993
1849973.874
1849969.733
1849969.082
1849967.345
1849966.129
1849964.687
1849963.325
1849961.923
1849960.548
1849959.191
1849957.875
1849956.631
1849955.46
1849954.492
1849953.611
1849953.434
1849953.311
1849953.57
1849925.973
1849927.062
1849920.784
1849838.441
1849841.751
1850013.595
1849971.838
1849973.719
1849969.579
1849968.927
1849967.191
1849965.975
1849964.533
1849963.172
1849961.771
1849960.396
1849959.04
1849957.724
1849956.481
1849955.31
1849954.34
1849953.46
1849953.265
1849953.141
1849953.329
1849926.396
1849927.39
1849921.65
1849838.956
1849843.358
1850013.44
1849971.682
1849973.563
1849969.423
1849968.772
1849967.035
1849965.82
1849964.378
1849963.017
1849961.616
1849960.242
1849958.886
1849957.571
1849956.328
1849955.158
1849954.185
1849953.306
1849953.094
1849952.974
1849953.078
1849926.662
1849927.546
1849922.028
1849838.618
1849843.597
1850013.283
1849971.526
1849973.407
1849969.266
1849968.615
1849966.879
1849965.663
1849964.222
1849962.861
1849961.46
1849960.086
1849958.731
1849957.416
1849956.173
1849955.003
1849954.028
1849953.149
1849952.922
1849952.805
1849952.829
1849926.845
1849927.621
1849922.089
1849838.159
1849843.959
1850013.126
1849971.368
1849973.249
1849969.109
1849968.457
1849966.721
1849965.506
1849964.064
1849962.704
1849961.303
1849959.929
1849958.574
1849957.259
1849956.016
1849954.846
1849953.87
1849952.991
1849952.755
1849952.643
1849952.627
1849927.05
1849927.778
1849922.522
1849839.372
1849847.534
1850012.967
1849971.209
1849973.09
1849968.95
1849968.299
1849966.562
1849965.347
1849963.905
1849962.544
1849961.143
1849959.769
1849958.414
1849957.099
1849955.855
1849954.686
1849953.708
1849952.831
1849952.59
1849952.481
1849952.455
1849927.132
1849927.85
1849923.144
1849840.992
1849851.409
1850012.807
1849971.049
1849972.93
1849968.79
1849968.139
1849966.402
1849965.187
1849963.745
1849962.384
1849960.982
1849959.608
1849958.252
1849956.936
1849955.692
1849954.523
1849953.545
1849952.668
1849952.427
1849952.324
1849952.291
1849927.026
1849927.76
1849923.371
1849840.809
1849851.338
1850012.646
1849970.889
1849972.77
1849968.629
1849967.978
1849966.241
1849965.025
1849963.583
1849962.221
1849960.82
1849959.444
1849958.088
1849956.771
1849955.527
1849954.357
1849953.379
1849952.504
1849952.268
1849952.173
1849952.134
1849926.669
1849927.411
1849922.785
1849838.807
1849847.761
1850012.484
1849970.727
1849972.608
1849968.468
1849967.816
1849966.079
1849964.863
1849963.421
1849962.058
1849960.655
1849959.279
1849957.922
1849956.604
1849955.359
1849954.188
1849953.211
1849952.336
1849952.11
1849952.027
1849951.987
1849925.959
1849926.65
1849921.318
1849835.699
1849842.803
1850012.321
1849970.565
1849972.446
1849968.306
1849967.654
1849965.917
1849964.7
1849963.257
1849961.893
1849960.49
1849959.112
1849957.754
1849956.435
1849955.189
1849954.017
1849953.041
1849952.166
1849951.955
1849951.882
1849951.87
1849924.976
1849925.642
1849919.646
1849832.321
1849837.572
1850012.158
1849970.402
1849972.283
1849968.143
1849967.491
1849965.753
1849964.536
1849963.092
1849961.728
1849960.323
1849958.944
1849957.584
1849956.264
1849955.017
1849953.843
1849952.869
1849951.994
1849951.798
1849951.736
1849951.764
1849923.955
1849924.652
1849918.089
1849828.604
1849831.502
1850011.995
1849970.239
1849972.12
1849967.98
1849967.327
1849965.589
1849964.371
1849962.927
1849961.561
1849960.155
1849958.775
1849957.414
1849956.092
1849954.843
1849953.668
1849952.694
1849951.818
1849951.634
1849951.577
1849951.62
1849923.067
1849923.719
1849916.469
1849824.717
1849825.001
1850011.831
1849970.075
1849971.957
1849967.816
1849967.164
1849965.425
1849964.207
1849962.761
1849961.395
1849959.987
1849958.606
1849957.242
1849955.919
1849954.668
1849953.491
1849952.517
1849951.639
1849951.463
1849951.406
1849951.468
1849922.503
1849923.139
1849915.425
1849822.646
1849821.363
1850011.667
1849969.912
1849971.793
1849967.653
1849967
1849965.261
1849964.042
1849962.595
1849961.228
1849959.819
1849958.435
1849957.07
1849955.745
1849954.492
1849953.312
1849952.338
1849951.456
1849951.285
1849951.217
1849951.327
1849922.303
1849923.09
1849915.368
1849823.31
1849821.985
1850011.504
1849969.749
1849971.63
1849967.49
1849966.837
1849965.098
1849963.878
1849962.43
1849961.061
1849959.65
1849958.265
1849956.898
1849955.57
1849954.316
1849953.134
1849952.157
1849951.272
1849951.101
1849951.015
1849951.189
1849922.37
1849923.38
1849916.118
1849826.582
1849827.117
1850011.341
1849969.587
1849971.468
1849967.328
1849966.675
1849964.935
1849963.714
1849962.265
1849960.894
1849959.482
1849958.095
1849956.726
1849955.396
1849954.139
1849952.954
1849951.975
1849951.086
1849950.912
1849950.808
1849951.025
1849922.628
1849923.769
1849917.029
1849830.349
1849833.557
1850011.179
1849969.426
1849971.307
1849967.167
1849966.513
1849964.773
1849963.551
1849962.101
1849960.729
1849959.315
1849957.926
1849956.554
1849955.222
1849953.962
1849952.775
1849951.793
1849950.9
1849950.72
1849950.6
1849950.816
1849922.887
1849924.033
1849917.551
1849832.262
1849836.217
1850011.018
1849969.265
1849971.147
1849967.007
1849966.353
1849964.612
1849963.389
1849961.938
1849960.564
1849959.148
1849957.757
1849956.383
1849955.048
1849953.786
1849952.596
1849951.612
1849950.714
1849950.53
1849950.399
1849950.614
1849922.972
1849924.137
1849917.863
1849833.027
1849836.511
1850010.859
1849969.107
1849970.988
1849966.849
1849966.194
1849964.452
1849963.228
1849961.776
1849960.401
1849958.983
1849957.59
1849956.214
1849954.876
1849953.611
1849952.418
1849951.432
1849950.531
1849950.347
1849950.207
1849950.446
1849922.778
1849924.006
1849917.892
1849833.299
1849837.322
1850010.702
1849968.95
1849970.832
1849966.692
1849966.037
1849964.295
1849963.07
1849961.616
1849960.239
1849958.82
1849957.424
1849956.045
1849954.705
1849953.438
1849952.241
1849951.254
1849950.349
1849950.171
1849950.028
1849950.3
1849922.297
1849923.542
1849917.374
1849832.371
1849836.889
1850010.547
1849968.796
1849970.677
1849966.538
1849965.882
1849964.139
1849962.913
1849961.458
1849960.08
1849958.658
1849957.26
1849955.879
1849954.536
1849953.266
1849952.066
1849951.078
1849950.17
1849950.001
1849949.857
1849950.153
1849921.592
1849922.77
1849916.221
1849829.797
1849833.128
1850010.394
1849968.644
1849970.525
1849966.386
1849965.73
1849963.986
1849962.759
1849961.303
1849959.923
1849958.499
1849957.099
1849955.715
1849954.369
1849953.097
1849951.894
1849950.905
1849949.994
1849949.838
1849949.693
1849950.028
1849920.792
1849921.961
1849914.766
1849826.624
1849827.775
1850010.245
1849968.495
1849970.377
1849966.237
1849965.581
1849963.836
1849962.609
1849961.151
1849959.769
1849958.343
1849956.941
1849955.554
1849954.205
1849952.931
1849951.725
1849950.736
1849949.822
1849949.681
1849949.529
1849949.93
1849919.981
1849921.26
1849913.308
1849824.35
1849823.663
1850010.098
1849968.349
1849970.231
1849966.091
1849965.435
1849963.69
1849962.461
1849961.002
1849959.618
1849958.191
1849956.786
1849955.397
1849954.045
1849952.768
1849951.56
1849950.572
1849949.654
1849949.531
1849949.368
1849949.867
1849919.29
1849920.726
1849912.349
1849824.183
1849822.917
1850009.955
1849968.207
1849970.089
1849965.949
1849965.292
1849963.547
1849962.317
1849960.856
1849959.471
1849958.042
1849956.635
1849955.244
1849953.89
1849952.611
1849951.399
1849950.413
1849949.491
1849949.387
1849949.212
1849949.823
1849918.742
1849920.368
1849912.024
1849825.252
1849824.178
1850009.817
1849968.068
1849969.95
1849965.811
1849965.154
1849963.407
1849962.177
1849960.715
1849959.329
1849957.898
1849956.489
1849955.096
1849953.739
1849952.458
1849951.244
1849950.26
1849949.335
1849949.251
1849949.065
1849949.788
1849918.276
1849920.152
1849912.023
1849825.851
1849824.834
1850009.682
1849967.934
1849969.816
1849965.676
1849965.019
1849963.273
1849962.041
1849960.579
1849959.191
1849957.759
1849956.348
1849954.953
1849953.594
1849952.312
1849951.096
1849950.113
1849949.186
1849949.122
1849948.935
1849949.741
1849917.648
1849919.701
1849911.404
1849824.257
1849821.901
1850009.552
1849967.804
1849969.686
1849965.547
1849964.889
1849963.142
1849961.91
1849960.447
1849959.058
1849957.625
1849956.212
1849954.816
1849953.455
1849952.172
1849950.954
1849949.973
1849949.045
1849948.998
1849948.813
1849949.644
1849916.618
1849918.626
1849909.422
1849820.041
1849814.041
1850009.427
1849967.679
1849969.561
1849965.421
1849964.764
1849963.017
1849961.784
1849960.32
1849958.931
1849957.496
1849956.083
1849954.686
1849953.324
1849952.039
1849950.82
1849949.841
1849948.912
1849948.883
1849948.706
1849949.551
1849915.544
1849917.468
1849907.219
1849815.558
1849804.959
1850009.306
1849967.559
1849969.441
1849965.301
1849964.643
1849962.896
1849961.663
1849960.199
1849958.809
1849957.374
1849955.96
1849954.562
1849953.199
1849951.915
1849950.695
1849949.718
1849948.789
1849948.774
1849948.607
1849949.467
1849914.735
1849916.633
1849905.613
1849812.25
1849798.448
1850009.191
1849967.443
1849969.325
1849965.185
1849964.528
1849962.78
1849961.548
1849960.083
1849958.694
1849957.259
1849955.844
1849954.446
1849953.083
1849951.799
1849950.579
1849949.603
1849948.675
1849948.67
1849948.508
1849949.39
1849914.25
1849916.141
1849904.749
1849810.79
1849796.306
1850009.08
1849967.332
1849969.214
1849965.074
1849964.417
1849962.669
1849961.437
1849959.973
1849958.584
1849957.149
1849955.735
1849954.338
1849952.976
1849951.692
1849950.473
1849949.498
1849948.57
1849948.57
1849948.407
1849949.314
1849914.077
1849915.997
1849904.662
1849811.178
1849797.119
1850008.974
1849967.226
1849969.108
1849964.968
1849964.311
1849962.564
1849961.332
1849959.869
1849958.48
1849957.046
1849955.634
1849954.237
1849952.876
1849951.593
1849950.375
1849949.402
1849948.475
1849948.472
1849948.303
1849949.221
1849914.226
1849916.218
1849905.235
1849812.949
1849799.993
1850008.873
1849967.125
1849969.007
1849964.867
1849964.21
1849962.463
1849961.232
1849959.769
1849958.382
1849956.949
1849955.538
1849954.144
1849952.784
1849951.504
1849950.288
1849949.314
1849948.389
1849948.379
1849948.208
1849949.117
1849914.704
1849916.794
1849906.3
1849815.22
1849803.801
1850008.776
1849967.027
1849968.909
1849964.769
1849964.113
1849962.366
1849961.136
1849959.675
1849958.289
1849956.859
1849955.45
1849954.057
1849952.701
1849951.422
1849950.209
1849949.235
1849948.312
1849948.29
1849948.117
1849948.979
1849915.241
1849917.325
1849907.204
1849816.859
1849806.53
1850008.684
1849966.934
1849968.816
1849964.676
1849964.02
1849962.274
1849961.045
1849959.585
1849958.201
1849956.773
1849955.367
1849953.977
1849952.624
1849951.348
1849950.138
1849949.165
1849948.245
1849948.207
1849948.036
1849948.833
1849915.688
1849917.682
1849907.847
1849818.067
1849809.004
1850008.595
1849966.845
1849968.726
1849964.586
1849963.93
1849962.186
1849960.958
1849959.5
1849958.118
1849956.693
1849955.29
1849953.904
1849952.554
1849951.281
1849950.075
1849949.102
1849948.185
1849948.13
1849947.964
1849948.691
1849916.078
1849917.964
1849908.431
1849818.757
1849810.187
1850008.509
1849966.758
1849968.64
1849964.5
1849963.844
1849962.101
1849960.875
1849959.419
1849958.039
1849956.617
1849955.217
1849953.835
1849952.489
1849951.22
1849950.018
1849949.045
1849948.133
1849948.058
1849947.897
1849948.539
1849916.518
1849918.246
1849909.042
1849819.477
1849811.236
1850008.426
1849966.674
1849968.556
1849964.416
1849963.761
1849962.019
1849960.794
1849959.34
1849957.964
1849956.545
1849955.149
1849953.77
1849952.429
1849951.164
1849949.967
1849948.994
1849948.087
1849947.992
1849947.838
1849948.4
1849917.2
1849918.814
1849910.09
1849821.393
1849815.483
1850008.346
1849966.593
1849968.474
1849964.334
1849963.68
1849961.939
1849960.716
1849959.264
1849957.891
1849956.475
1849955.083
1849953.709
1849952.373
1849951.112
1849949.92
1849948.947
1849948.045
1849947.928
1849947.781
1849948.26
1849918.023
1849919.539
1849911.402
1849823.839
1849821.046
1850008.267
1849966.513
1849968.394
1849964.254
1849963.6
1849961.86
1849960.639
1849959.19
1849957.819
1849956.407
1849955.019
1849953.65
1849952.319
1849951.062
1849949.875
1849948.902
1849948.005
1849947.864
1849947.721
1849948.102
1849918.838
1849920.194
1849912.603
1849825.982
1849825
1850008.188
1849966.433
1849968.315
1849964.174
1849963.522
1849961.783
1849960.563
1849959.117
1849957.749
1849956.34
1849954.956
1849953.591
1849952.265
1849951.013
1849949.832
1849948.858
1849947.966
1849947.801
1849947.662
1849947.952
1849919.702
1849920.898
1849913.898
1849828.54
1849829.163
1850008.111
1849966.355
1849968.236
1849964.096
1849963.444
1849961.706
1849960.488
1849959.043
1849957.679
1849956.273
1849954.894
1849953.533
1849952.212
1849950.964
1849949.787
1849948.814
1849947.926
1849947.739
1849947.604
1849947.813
1849920.53
1849921.552
1849915.146
1849831.381
1849833.981
1850008.032
1849966.276
1849968.157
1849964.016
1849963.365
1849961.628
1849960.412
1849958.97
1849957.608
1849956.206
1849954.83
1849953.473
1849952.157
1849950.913
1849949.741
1849948.768
1849947.884
1849947.675
1849947.538
1849947.678
1849921.227
1849922.102
1849916.183
1849833.95
1849838.293
1850007.954
1849966.196
1849968.077
1849963.936
1849963.286
1849961.55
1849960.335
1849958.895
1849957.535
1849956.136
1849954.764
1849953.411
1849952.099
1849950.859
1849949.691
1849948.719
1849947.839
1849947.613
1849947.475
1849947.584
1849921.918
1849922.796
1849917.474
1849837.491
1849844.715
1850007.873
1849966.115
1849967.995
1849963.855
1849963.205
1849961.47
1849960.257
1849958.818
1849957.461
1849956.064
1849954.695
1849953.346
1849952.037
1849950.801
1849949.637
1849948.665
1849947.788
1849947.548
1849947.411
1849947.488
1849922.498
1849923.356
1849918.55
1849840.421
1849849.739
1850007.791
1849966.032
1849967.913
1849963.772
1849963.122
1849961.388
1849960.176
1849958.739
1849957.384
1849955.99
1849954.623
1849953.277
1849951.971
1849950.737
1849949.577
1849948.605
1849947.732
1849947.478
1849947.343
1849947.354
1849922.862
1849923.537
1849918.963
1849841.111
1849851.052
1850007.707
1849965.947
1849967.827
1849963.687
1849963.038
1849961.304
1849960.093
1849958.657
1849957.303
1849955.911
1849954.547
1849953.202
1849951.9
1849950.668
1849949.511
1849948.539
1849947.669
1849947.405
1849947.277
1849947.231
1849923.101
1849923.635
1849919.302
1849841.136
1849851.998
1850007.62
1849965.859
1849967.74
1849963.6
1849962.951
1849961.217
1849960.007
1849958.572
1849957.219
1849955.828
1849954.466
1849953.123
1849951.822
1849950.592
1849949.437
1849948.466
1849947.599
1849947.328
1849947.208
1849947.12
1849923.239
1849923.752
1849919.711
1849840.883
1849852.11
1850007.53
1849965.769
1849967.65
1849963.51
1849962.861
1849961.128
1849959.918
1849958.483
1849957.131
1849955.741
1849954.379
1849953.038
1849951.738
1849950.51
1849949.356
1849948.386
1849947.52
1849947.248
1849947.135
1849947.022
1849923.252
1849923.778
1849919.907
1849840.19
1849851.109
1850007.437
1849965.677
1849967.557
1849963.417
1849962.768
1849961.035
1849959.825
1849958.391
1849957.039
1849955.65
1849954.288
1849952.947
1849951.648
1849950.42
1849949.267
1849948.297
1849947.433
1849947.163
1849947.057
1849946.927
1849923.05
1849923.568
1849919.573
1849838.879
1849848.868
1850007.341
1849965.581
1849967.462
1849963.321
1849962.672
1849960.939
1849959.729
1849958.295
1849956.943
1849955.553
1849954.192
1849952.85
1849951.551
1849950.323
1849949.169
1849948.201
1849947.337
1849947.073
1849946.971
1849946.845
1849922.649
1849923.16
1849918.829
1849837.267
1849845.964
1850007.243
1849965.482
1849967.363
1849963.223
1849962.574
1849960.84
1849959.63
1849958.196
1849956.843
1849955.453
1849954.09
1849952.748
1849951.448
1849950.219
1849949.065
1849948.097
1849947.233
1849946.978
1849946.878
1849946.786
1849922.112
1849922.66
1849917.983
1849835.766
1849843.396
1850007.141
1849965.381
1849967.262
1849963.122
1849962.472
1849960.739
1849959.528
1849958.092
1849956.739
1849955.347
1849953.984
1849952.64
1849951.338
1849950.108
1849948.952
1849947.986
1849947.119
1849946.877
1849946.773
1849946.733
1849921.519
1849922.155
1849917.174
1849834.27
1849841.139
1850007.037
1849965.278
1849967.158
1849963.018
1849962.368
1849960.634
1849959.423
1849957.986
1849956.631
1849955.238
1849953.873
1849952.527
1849951.223
1849949.991
1849948.833
1849947.867
1849946.999
1849946.771
1849946.663
1849946.69
1849921.001
1849921.754
1849916.531
1849833.23
1849839.783
1850006.93
1849965.171
1849967.052
1849962.912
1849962.262
1849960.527
1849959.315
1849957.877
1849956.521
1849955.125
1849953.758
1849952.41
1849951.103
1849949.869
1849948.708
1849947.742
1849946.87
1849946.657
1849946.542
1849946.64
1849920.429
1849921.265
1849915.747
1849832.282
1849837.876
1850006.822
1849965.064
1849966.944
1849962.804
1849962.154
1849960.418
1849959.204
1849957.765
1849956.407
1849955.01
1849953.639
1849952.288
1849950.978
1849949.741
1849948.577
1849947.611
1849946.734
1849946.536
1849946.41
1849946.584
1849919.763
1849920.705
1849914.762
1849831.236
1849835.225
1850006.712
1849964.954
1849966.835
1849962.695
1849962.044
1849960.307
1849959.092
1849957.651
1849956.291
1849954.891
1849953.518
1849952.164
1849950.85
1849949.61
1849948.441
1849947.475
1849946.594
1849946.411
1849946.273
1849946.53
1849919.154
1849920.23
1849913.826
1849830.657
1849833.677
1850006.6
1849964.843
1849966.724
1849962.584
1849961.933
1849960.196
1849958.979
1849957.536
1849956.173
1849954.771
1849953.394
1849952.036
1849950.719
1849949.475
1849948.302
1849947.336
1849946.449
1849946.282
1849946.131
1849946.47
1849918.598
1849919.769
1849913.074
1849830.582
1849833.115