/*--------------------------------*- C++ -*----------------------------------*\
| =========                 |                                                 |
| \\      /  F ield         | OpenFOAM: The Open Source CFD Toolbox           |
|  \\    /   O peration     | Version:  v1912                                 |
|   \\  /    A nd           | Website:  www.openfoam.com                      |
|    \\/     M anipulation  |                                                 |
\*---------------------------------------------------------------------------*/
FoamFile
{
    version     2.0;
    format      ascii;
    class       volScalarField;
    location    "4";
    object      p;
}
// * * * * * * * * * * * * * * * * * * * * * * * * * * * * * * * * * * * * * //

dimensions      [0 2 -2 0 0 0 0];


internalField   nonuniform List<scalar> 
290400
(
1864607.292
1864541.021
1864538.079
1864528.446
1864525.486
1864521.999
1864519.696
1864517.433
1864515.437
1864513.503
1864511.654
1864509.84
1864508.068
1864506.288
1864504.542
1864502.635
1864500.856
1864498.173
1864496.481
1864487.596
1864475.718
1864453.357
1864462.343
1864266.353
1864357.839
1864583.601
1864535.834
1864535.431
1864527.997
1864525.527
1864522.214
1864519.92
1864517.617
1864515.579
1864513.602
1864511.718
1864509.876
1864508.081
1864506.285
1864504.546
1864502.672
1864501.047
1864498.648
1864498.002
1864489.506
1864476.812
1864457.398
1864476.155
1864286.269
1864416.037
1864578.192
1864533.253
1864533.393
1864526.994
1864524.909
1864521.903
1864519.754
1864517.537
1864515.542
1864513.59
1864511.721
1864509.893
1864508.12
1864506.36
1864504.69
1864502.932
1864501.529
1864499.501
1864499.592
1864491.987
1864478.845
1864461.725
1864483.215
1864297.38
1864430.762
1864572.97
1864530.446
1864531.402
1864525.99
1864524.318
1864521.609
1864519.6
1864517.464
1864515.509
1864513.578
1864511.723
1864509.906
1864508.149
1864506.416
1864504.796
1864503.117
1864501.862
1864500.065
1864500.578
1864493.602
1864480.703
1864465.044
1864488.885
1864306.318
1864443.57
1864570.632
1864528.704
1864529.977
1864525.051
1864523.65
1864521.175
1864519.309
1864517.274
1864515.385
1864513.5
1864511.679
1864509.892
1864508.168
1864506.476
1864504.913
1864503.316
1864502.187
1864500.565
1864501.333
1864494.791
1864482.457
1864467.433
1864492.352
1864312.13
1864450.719
1864568.872
1864527.231
1864528.772
1864524.187
1864523.013
1864520.732
1864518.994
1864517.054
1864515.231
1864513.395
1864511.612
1864509.859
1864508.168
1864506.514
1864505
1864503.466
1864502.429
1864500.921
1864501.856
1864495.627
1864484.387
1864469.723
1864496.176
1864320.506
1864464.458
1864567.763
1864526.176
1864527.851
1864523.448
1864522.425
1864520.284
1864518.652
1864516.799
1864515.042
1864513.258
1864511.52
1864509.805
1864508.152
1864506.536
1864505.07
1864503.59
1864502.627
1864501.193
1864502.245
1864496.16
1864486.052
1864471.281
1864499.043
1864326.074
1864475.111
1864566.917
1864525.329
1864527.095
1864522.805
1864521.893
1864519.858
1864518.314
1864516.536
1864514.839
1864513.106
1864511.411
1864509.735
1864508.119
1864506.541
1864505.117
1864503.681
1864502.777
1864501.391
1864502.539
1864496.468
1864487.291
1864472.08
1864500.869
1864326.267
1864478.783
1864566.28
1864524.669
1864526.485
1864522.258
1864521.421
1864519.462
1864517.988
1864516.272
1864514.629
1864512.944
1864511.29
1864509.652
1864508.073
1864506.531
1864505.145
1864503.748
1864502.893
1864501.54
1864502.768
1864496.656
1864488.11
1864472.466
1864502.058
1864324.476
1864479.993
1864565.765
1864524.129
1864525.975
1864521.786
1864521.003
1864519.099
1864517.68
1864516.015
1864514.419
1864512.777
1864511.162
1864509.56
1864508.015
1864506.507
1864505.156
1864503.792
1864502.98
1864501.652
1864502.952
1864496.787
1864488.721
1864472.669
1864502.833
1864322.366
1864479.93
1864565.341
1864523.682
1864525.546
1864521.379
1864520.632
1864518.769
1864517.392
1864515.77
1864514.214
1864512.609
1864511.029
1864509.461
1864507.948
1864506.47
1864505.152
1864503.817
1864503.042
1864501.733
1864503.09
1864496.877
1864489.156
1864472.785
1864503.352
1864320.821
1864479.148
1864564.981
1864523.304
1864525.177
1864521.023
1864520.302
1864518.469
1864517.126
1864515.537
1864514.015
1864512.443
1864510.895
1864509.356
1864507.873
1864506.423
1864505.134
1864503.825
1864503.082
1864501.791
1864503.197
1864496.967
1864489.56
1864473.067
1864504.077
1864321.832
1864481.942
1864564.669
1864522.977
1864524.856
1864520.709
1864520.007
1864518.195
1864516.879
1864515.318
1864513.824
1864512.28
1864510.759
1864509.247
1864507.79
1864506.366
1864505.102
1864503.816
1864503.102
1864501.826
1864503.275
1864497.017
1864489.942
1864473.307
1864504.457
1864322.35
1864483.048
1864564.394
1864522.69
1864524.572
1864520.429
1864519.74
1864517.945
1864516.649
1864515.111
1864513.641
1864512.12
1864510.624
1864509.135
1864507.701
1864506.299
1864505.058
1864503.792
1864503.102
1864501.837
1864503.322
1864497.003
1864490.165
1864473.262
1864504.297
1864320.826
1864479.39
1864564.148
1864522.433
1864524.317
1864520.177
1864519.497
1864517.715
1864516.435
1864514.915
1864513.464
1864511.964
1864510.488
1864509.02
1864507.606
1864506.224
1864505.003
1864503.755
1864503.085
1864501.832
1864503.351
1864496.998
1864490.311
1864473.3
1864504.623
1864320.371
1864478.115
1864563.923
1864522.201
1864524.085
1864519.946
1864519.273
1864517.501
1864516.233
1864514.728
1864513.294
1864511.811
1864510.352
1864508.901
1864507.505
1864506.14
1864504.936
1864503.703
1864503.053
1864501.811
1864503.364
1864496.981
1864490.377
1864473.259
1864505.02
1864319.354
1864478.472
1864563.716
1864521.987
1864523.871
1864519.733
1864519.065
1864517.3
1864516.043
1864514.55
1864513.129
1864511.66
1864510.216
1864508.78
1864507.399
1864506.048
1864504.859
1864503.639
1864503.004
1864501.769
1864503.354
1864496.896
1864490.239
1864472.731
1864504.537
1864316.225
1864477.123
1864563.522
1864521.788
1864523.672
1864519.534
1864518.869
1864517.111
1864515.862
1864514.378
1864512.968
1864511.511
1864510.079
1864508.656
1864507.288
1864505.949
1864504.772
1864503.564
1864502.942
1864501.715
1864503.328
1864496.805
1864490.054
1864472.168
1864503.88
1864313.255
1864475.376
1864563.338
1864521.6
1864523.484
1864519.346
1864518.684
1864516.93
1864515.688
1864514.212
1864512.811
1864511.364
1864509.942
1864508.53
1864507.172
1864505.843
1864504.676
1864503.477
1864502.865
1864501.647
1864503.276
1864496.724
1864489.883
1864471.814
1864503.32
1864310.984
1864471.689
1864563.163
1864521.421
1864523.305
1864519.167
1864518.508
1864516.757
1864515.52
1864514.05
1864512.656
1864511.217
1864509.804
1864508.4
1864507.051
1864505.731
1864504.572
1864503.382
1864502.777
1864501.571
1864503.2
1864496.682
1864489.682
1864471.765
1864502.954
1864310.638
1864468.517
1864562.995
1864521.25
1864523.133
1864518.995
1864518.337
1864516.589
1864515.356
1864513.892
1864512.504
1864511.071
1864509.665
1864508.268
1864506.926
1864505.614
1864504.461
1864503.279
1864502.677
1864501.485
1864503.098
1864496.669
1864489.385
1864471.927
1864502.771
1864312.449
1864468.545
1864562.831
1864521.084
1864522.967
1864518.828
1864518.172
1864516.426
1864515.197
1864513.736
1864512.353
1864510.926
1864509.525
1864508.134
1864506.798
1864505.491
1864504.343
1864503.168
1864502.568
1864501.392
1864502.983
1864496.674
1864489.181
1864472.276
1864502.734
1864316.127
1864470.325
1864562.671
1864520.923
1864522.805
1864518.666
1864518.011
1864516.267
1864515.04
1864513.583
1864512.204
1864510.78
1864509.384
1864507.998
1864506.666
1864505.364
1864504.22
1864503.051
1864502.451
1864501.291
1864502.863
1864496.658
1864489.041
1864472.543
1864502.514
1864319.48
1864471.042
1864562.515
1864520.764
1864522.647
1864518.508
1864517.853
1864516.11
1864514.885
1864513.431
1864512.055
1864510.635
1864509.242
1864507.859
1864506.531
1864505.233
1864504.092
1864502.928
1864502.328
1864501.18
1864502.738
1864496.584
1864488.839
1864472.427
1864501.813
1864320.035
1864468.973
1864562.36
1864520.609
1864522.491
1864518.352
1864517.698
1864515.956
1864514.733
1864513.28
1864511.906
1864510.489
1864509.099
1864507.719
1864506.393
1864505.098
1864503.959
1864502.8
1864502.201
1864501.065
1864502.619
1864496.501
1864488.532
1864472.141
1864501.066
1864319.016
1864466.193
1864562.208
1864520.455
1864522.337
1864518.198
1864517.544
1864515.803
1864514.581
1864513.13
1864511.758
1864510.343
1864508.955
1864507.577
1864506.253
1864504.961
1864503.823
1864502.667
1864502.068
1864500.944
1864502.496
1864496.397
1864487.946
1864471.645
1864500.109
1864316.686
1864462.788
1864562.056
1864520.303
1864522.185
1864518.045
1864517.392
1864515.652
1864514.431
1864512.981
1864511.61
1864510.197
1864508.81
1864507.434
1864506.112
1864504.821
1864503.685
1864502.532
1864501.933
1864500.821
1864502.372
1864496.281
1864487.31
1864471.077
1864498.903
1864313.471
1864457.019
1864561.906
1864520.152
1864522.034
1864517.894
1864517.241
1864515.501
1864514.281
1864512.832
1864511.462
1864510.05
1864508.665
1864507.29
1864505.969
1864504.679
1864503.544
1864502.394
1864501.794
1864500.693
1864502.241
1864496.164
1864486.765
1864470.654
1864497.594
1864310.56
1864450.304
1864561.757
1864520.002
1864521.884
1864517.744
1864517.091
1864515.352
1864514.132
1864512.684
1864511.315
1864509.903
1864508.519
1864507.146
1864505.825
1864504.537
1864503.402
1864502.254
1864501.652
1864500.564
1864502.1
1864496.072
1864486.298
1864470.453
1864496.607
1864309.72
1864445.414
1864561.608
1864519.853
1864521.734
1864517.594
1864516.942
1864515.203
1864513.983
1864512.536
1864511.168
1864509.757
1864508.374
1864507.001
1864505.681
1864504.393
1864503.258
1864502.114
1864501.509
1864500.434
1864501.949
1864495.995
1864485.941
1864470.413
1864495.983
1864310.754
1864442.041
1864561.459
1864519.704
1864521.585
1864517.445
1864516.793
1864515.054
1864513.835
1864512.388
1864511.02
1864509.61
1864508.228
1864506.855
1864505.536
1864504.25
1864503.115
1864501.973
1864501.366
1864500.301
1864501.792
1864495.941
1864485.786
1864470.614
1864495.841
1864314.545
1864445.191
1864561.311
1864519.556
1864521.437
1864517.297
1864516.644
1864514.906
1864513.687
1864512.24
1864510.873
1864509.464
1864508.082
1864506.71
1864505.391
1864504.106
1864502.971
1864501.832
1864501.223
1864500.172
1864501.643
1864495.921
1864485.791
1864471.045
1864496.459
1864319.964
1864452.664
1864561.163
1864519.407
1864521.288
1864517.148
1864516.496
1864514.757
1864513.539
1864512.093
1864510.726
1864509.317
1864507.936
1864506.565
1864505.246
1864503.962
1864502.828
1864501.69
1864501.08
1864500.038
1864501.493
1864495.838
1864485.61
1864471.101
1864496.525
1864320.655
1864453.205
1864561.015
1864519.259
1864521.14
1864517
1864516.348
1864514.609
1864513.391
1864511.945
1864510.579
1864509.171
1864507.79
1864506.419
1864505.102
1864503.818
1864502.684
1864501.549
1864500.937
1864499.903
1864501.352
1864495.708
1864485.185
1864470.712
1864495.634
1864317.638
1864448.964
1864560.867
1864519.111
1864520.992
1864516.852
1864516.199
1864514.461
1864513.243
1864511.798
1864510.432
1864509.024
1864507.644
1864506.274
1864504.957
1864503.674
1864502.541
1864501.407
1864500.794
1864499.766
1864501.214
1864495.561
1864484.609
1864470.132
1864494.333
1864313.599
1864443.172
1864560.718
1864518.962
1864520.843
1864516.703
1864516.051
1864514.313
1864513.095
1864511.65
1864510.285
1864508.878
1864507.498
1864506.129
1864504.813
1864503.531
1864502.397
1864501.265
1864500.651
1864499.629
1864501.075
1864495.418
1864484.047
1864469.594
1864492.929
1864309.761
1864435.78
1864560.57
1864518.814
1864520.695
1864516.554
1864515.902
1864514.165
1864512.947
1864511.503
1864510.138
1864508.731
1864507.352
1864505.984
1864504.668
1864503.387
1864502.254
1864501.123
1864500.507
1864499.49
1864500.922
1864495.292
1864483.627
1864469.286
1864491.738
1864309.115
1864430.84
1864560.421
1864518.665
1864520.546
1864516.405
1864515.754
1864514.016
1864512.799
1864511.355
1864509.991
1864508.584
1864507.206
1864505.839
1864504.524
1864503.244
1864502.111
1864500.981
1864500.364
1864499.349
1864500.763
1864495.211
1864483.649
1864469.557
1864491.862
1864314.233
1864435.086
1864560.272
1864518.515
1864520.396
1864516.256
1864515.604
1864513.867
1864512.65
1864511.206
1864509.843
1864508.437
1864507.059
1864505.693
1864504.379
1864503.1
1864501.968
1864500.839
1864500.221
1864499.207
1864500.607
1864495.153
1864484.1
1864470.247
1864493.257
1864322.033
1864445.52
1864560.122
1864518.365
1864520.246
1864516.106
1864515.454
1864513.717
1864512.501
1864511.057
1864509.694
1864508.289
1864506.912
1864505.546
1864504.233
1864502.954
1864501.823
1864500.694
1864500.075
1864499.054
1864500.439
1864495.001
1864484.466
1864470.558
1864494.421
1864324.971
1864451.468
1864559.972
1864518.215
1864520.096
1864515.955
1864515.304
1864513.567
1864512.351
1864510.907
1864509.545
1864508.14
1864506.764
1864505.398
1864504.086
1864502.808
1864501.677
1864500.547
1864499.928
1864498.896
1864500.281
1864494.806
1864484.732
1864470.642
1864495.374
1864324.41
1864453.663
1864559.82
1864518.063
1864519.944
1864515.804
1864515.153
1864513.416
1864512.2
1864510.757
1864509.394
1864507.99
1864506.614
1864505.249
1864503.937
1864502.66
1864501.53
1864500.398
1864499.78
1864498.735
1864500.126
1864494.581
1864484.864
1864470.539
1864495.726
1864322.514
1864453.116
1864559.669
1864517.911
1864519.792
1864515.652
1864515.001
1864513.264
1864512.048
1864510.605
1864509.243
1864507.839
1864506.463
1864505.099
1864503.787
1864502.51
1864501.38
1864500.246
1864499.629
1864498.571
1864499.969
1864494.337
1864484.945
1864470.314
1864495.542
1864320.234
1864452.528
1864559.516
1864517.759
1864519.64
1864515.499
1864514.848
1864513.111
1864511.895
1864510.453
1864509.09
1864507.687
1864506.311
1864504.947
1864503.635
1864502.358
1864501.229
1864500.093
1864499.479
1864498.411
1864499.821
1864494.15
1864485.15
1864470.331
1864496.004
1864321.667
1864458.37
1864559.362
1864517.605
1864519.486
1864515.346
1864514.694
1864512.958
1864511.742
1864510.299
1864508.937
1864507.533
1864506.157
1864504.793
1864503.481
1864502.204
1864501.075
1864499.938
1864499.326
1864498.251
1864499.671
1864493.978
1864485.27
1864470.335
1864496.927
1864324.325
1864465.494
1864559.208
1864517.451
1864519.332
1864515.191
1864514.54
1864512.803
1864511.587
1864510.144
1864508.782
1864507.378
1864506.002
1864504.637
1864503.325
1864502.047
1864500.919
1864499.78
1864499.17
1864498.09
1864499.522
1864493.794
1864485.298
1864470.246
1864497.622
1864324.066
1864466.144
1864559.052
1864517.295
1864519.176
1864515.036
1864514.385
1864512.648
1864511.431
1864509.988
1864508.626
1864507.221
1864505.845
1864504.48
1864503.167
1864501.888
1864500.76
1864499.621
1864499.013
1864497.929
1864499.379
1864493.598
1864485.201
1864470.01
1864497.49
1864321.574
1864461.438
1864558.896
1864517.14
1864519.021
1864514.88
1864514.229
1864512.492
1864511.275
1864509.832
1864508.468
1864507.063
1864505.686
1864504.32
1864503.007
1864501.728
1864500.599
1864499.459
1864498.853
1864497.769
1864499.237
1864493.392
1864484.793
1864469.39
1864496.285
1864318.213
1864455.941
1864558.74
1864516.983
1864518.864
1864514.724
1864514.072
1864512.335
1864511.118
1864509.674
1864508.31
1864506.904
1864505.527
1864504.16
1864502.846
1864501.565
1864500.435
1864499.295
1864498.691
1864497.61
1864499.096
1864493.214
1864484.097
1864468.635
1864495.071
1864315.297
1864451.863
1864558.582
1864516.826
1864518.707
1864514.567
1864513.915
1864512.178
1864510.96
1864509.516
1864508.151
1864506.744
1864505.366
1864503.998
1864502.683
1864501.4
1864500.27
1864499.13
1864498.527
1864497.452
1864498.955
1864493.06
1864483.366
1864467.997
1864494.259
1864311.8
1864447.901
1864558.425
1864516.669
1864518.55
1864514.41
1864513.758
1864512.02
1864510.802
1864509.357
1864507.992
1864506.584
1864505.204
1864503.835
1864502.518
1864501.235
1864500.103
1864498.962
1864498.359
1864497.287
1864498.801
1864492.865
1864482.726
1864467.222
1864493.07
1864306.858
1864442.471
1864558.267
1864516.512
1864518.393
1864514.253
1864513.601
1864511.862
1864510.644
1864509.198
1864507.831
1864506.423
1864505.041
1864503.671
1864502.353
1864501.068
1864499.935
1864498.793
1864498.189
1864497.121
1864498.638
1864492.692
1864482.327
1864466.728
1864492.169
1864304.033
1864438.726
1864558.11
1864516.355
1864518.236
1864514.096
1864513.443
1864511.704
1864510.485
1864509.039
1864507.671
1864506.261
1864504.879
1864503.507
1864502.187
1864500.901
1864499.765
1864498.623
1864498.016
1864496.953
1864498.457
1864492.566
1864482.104
1864466.798
1864491.973
1864304.907
1864437.959
1864557.952
1864516.197
1864518.079
1864513.939
1864513.286
1864511.547
1864510.327
1864508.879
1864507.511
1864506.1
1864504.716
1864503.342
1864502.021
1864500.733
1864499.595
1864498.452
1864497.841
1864496.782
1864498.261
1864492.468
1864481.988
1864467.178
1864492.348
1864309.76
1864442.006
1864557.795
1864516.041
1864517.922
1864513.782
1864513.129
1864511.39
1864510.169
1864508.721
1864507.351
1864505.939
1864504.553
1864503.178
1864501.855
1864500.565
1864499.425
1864498.281
1864497.665
1864496.608
1864498.066
1864492.354
1864482.083
1864467.535
1864492.793
1864315.053
1864447.885
1864557.639
1864515.885
1864517.767
1864513.627
1864512.973
1864511.233
1864510.012
1864508.563
1864507.192
1864505.778
1864504.391
1864503.013
1864501.688
1864500.396
1864499.254
1864498.108
1864497.488
1864496.429
1864497.87
1864492.172
1864482.245
1864467.607
1864492.849
1864316.565
1864448.808
1864557.484
1864515.73
1864517.612
1864513.472
1864512.818
1864511.078
1864509.856
1864508.405
1864507.033
1864505.618
1864504.229
1864502.85
1864501.522
1864500.229
1864499.084
1864497.936
1864497.313
1864496.251
1864497.683
1864491.988
1864482.289
1864467.613
1864493.041
1864316.708
1864447.69
1864557.33
1864515.577
1864517.458
1864513.318
1864512.665
1864510.923
1864509.701
1864508.249
1864506.876
1864505.459
1864504.068
1864502.687
1864501.357
1864500.061
1864498.914
1864497.764
1864497.139
1864496.076
1864497.504
1864491.825
1864482.102
1864467.515
1864493.265
1864317.078
1864449.415
1864557.177
1864515.425
1864517.306
1864513.166
1864512.512
1864510.771
1864509.547
1864508.094
1864506.719
1864505.301
1864503.908
1864502.525
1864501.193
1864499.895
1864498.745
1864497.594
1864496.967
1864495.906
1864497.338
1864491.667
1864481.719
1864467.131
1864493.126
1864316.214
1864451.445
1864557.026
1864515.274
1864517.156
1864513.016
1864512.362
1864510.619
1864509.395
1864507.941
1864506.565
1864505.144
1864503.75
1864502.364
1864501.03
1864499.729
1864498.578
1864497.424
1864496.796
1864495.737
1864497.178
1864491.482
1864481.202
1864466.399
1864492.371
1864312.832
1864449.681
1864556.878
1864515.126
1864517.008
1864512.868
1864512.213
1864510.47
1864509.245
1864507.79
1864506.412
1864504.99
1864503.593
1864502.206
1864500.869
1864499.566
1864498.412
1864497.257
1864496.627
1864495.574
1864497.025
1864491.311
1864480.625
1864465.703
1864491.266
1864308.287
1864445.036
1864556.731
1864514.98
1864516.862
1864512.722
1864512.067
1864510.324
1864509.098
1864507.641
1864506.262
1864504.838
1864503.439
1864502.049
1864500.71
1864499.405
1864498.248
1864497.092
1864496.46
1864495.414
1864496.866
1864491.16
1864479.952
1864465.169
1864489.787
1864304.925
1864439.872
1864556.588
1864514.837
1864516.719
1864512.579
1864511.924
1864510.18
1864508.953
1864507.495
1864506.115
1864504.689
1864503.288
1864501.896
1864500.554
1864499.247
1864498.087
1864496.931
1864496.297
1864495.261
1864496.708
1864491.049
1864479.36
1864464.823
1864488.626
1864305.104
1864438.014
1864556.447
1864514.697
1864516.579
1864512.439
1864511.784
1864510.039
1864508.811
1864507.353
1864505.97
1864504.543
1864503.14
1864501.746
1864500.402
1864499.092
1864497.93
1864496.774
1864496.137
1864495.111
1864496.55
1864490.961
1864478.935
1864464.671
1864488.366
1864307.368
1864439.879
1864556.31
1864514.561
1864516.443
1864512.303
1864511.647
1864509.902
1864508.673
1864507.213
1864505.83
1864504.401
1864502.996
1864501.6
1864500.253
1864498.942
1864497.778
1864496.621
1864495.983
1864494.967
1864496.401
1864490.887
1864478.715
1864464.801
1864489.053
1864309.349
1864442.849
1864556.176
1864514.427
1864516.309
1864512.169
1864511.513
1864509.768
1864508.538
1864507.078
1864505.693
1864504.263
1864502.856
1864501.458
1864500.11
1864498.796
1864497.631
1864496.474
1864495.835
1864494.828
1864496.27
1864490.789
1864478.443
1864464.733
1864489.336
1864308.256
1864441.82
1864556.047
1864514.298
1864516.18
1864512.04
1864511.384
1864509.638
1864508.408
1864506.946
1864505.561
1864504.129
1864502.721
1864501.322
1864499.972
1864498.656
1864497.489
1864496.331
1864495.692
1864494.688
1864496.138
1864490.588
1864477.699
1864463.776
1864487.627
1864302.717
1864433.411
1864555.921
1864514.172
1864516.054
1864511.915
1864511.258
1864509.512
1864508.281
1864506.819
1864505.433
1864504
1864502.592
1864501.19
1864499.839
1864498.522
1864497.354
1864496.196
1864495.557
1864494.557
1864496.025
1864490.396
1864476.92
1864462.792
1864485.6
1864297.255
1864422.523
1864555.799
1864514.051
1864515.933
1864511.793
1864511.136
1864509.39
1864508.159
1864506.697
1864505.31
1864503.877
1864502.467
1864501.066
1864499.713
1864498.396
1864497.226
1864496.068
1864495.43
1864494.435
1864495.918
1864490.241
1864476.409
1864462.195
1864484.317
1864293.763
1864414.733
1864555.682
1864513.934
1864515.816
1864511.676
1864511.019
1864509.273
1864508.042
1864506.579
1864505.192
1864503.759
1864502.349
1864500.947
1864499.594
1864498.276
1864497.106
1864495.948
1864495.311
1864494.319
1864495.811
1864490.122
1864476.12
1864461.834
1864483.668
1864292.502
1864412.825
1864555.569
1864513.821
1864515.703
1864511.563
1864510.906
1864509.16
1864507.929
1864506.467
1864505.08
1864503.647
1864502.237
1864500.835
1864499.482
1864498.165
1864496.995
1864495.838
1864495.2
1864494.212
1864495.701
1864490.03
1864475.946
1864461.705
1864483.525
1864293.254
1864413.962
1864555.461
1864513.712
1864515.594
1864511.454
1864510.797
1864509.051
1864507.821
1864506.359
1864504.973
1864503.54
1864502.131
1864500.729
1864499.378
1864498.061
1864496.892
1864495.735
1864495.097
1864494.109
1864495.586
1864489.947
1864475.942
1864461.875
1864483.873
1864295.638
1864416.864
1864555.356
1864513.607
1864515.489
1864511.349
1864510.693
1864508.947
1864507.717
1864506.256
1864504.87
1864503.439
1864502.031
1864500.631
1864499.28
1864497.965
1864496.797
1864495.642
1864495.004
1864494.016
1864495.482
1864489.892
1864476.27
1864462.441
1864484.829
1864298.706
1864420.079
1864555.256
1864513.507
1864515.388
1864511.249
1864510.592
1864508.847
1864507.618
1864506.157
1864504.773
1864503.343
1864501.936
1864500.538
1864499.19
1864497.876
1864496.71
1864495.556
1864494.918
1864493.927
1864495.381
1864489.804
1864476.594
1864462.807
1864485.367
1864300.416
1864420.766
1864555.159
1864513.41
1864515.291
1864511.151
1864510.495
1864508.751
1864507.522
1864506.063
1864504.68
1864503.252
1864501.848
1864500.452
1864499.106
1864497.795
1864496.631
1864495.478
1864494.84
1864493.846
1864495.29
1864489.717
1864476.759
1864462.941
1864485.526
1864301.624
1864421.881
1864555.066
1864513.316
1864515.197
1864511.058
1864510.402
1864508.658
1864507.43
1864505.973
1864504.592
1864503.165
1864501.764
1864500.37
1864499.027
1864497.719
1864496.558
1864495.408
1864494.771
1864493.773
1864495.209
1864489.644
1864476.806
1864463.023
1864485.671
1864302.045
1864421.874
1864554.976
1864513.225
1864515.107
1864510.967
1864510.312
1864508.568
1864507.342
1864505.886
1864504.507
1864503.083
1864501.684
1864500.294
1864498.955
1864497.65
1864496.492
1864495.343
1864494.707
1864493.704
1864495.131
1864489.558
1864476.868
1864463.01
1864485.738
1864302.192
1864421.928
1864554.889
1864513.137
1864515.018
1864510.878
1864510.224
1864508.481
1864507.257
1864505.802
1864504.426
1864503.004
1864501.608
1864500.222
1864498.886
1864497.585
1864496.431
1864495.285
1864494.651
1864493.644
1864495.065
1864489.509
1864477.229
1864463.353
1864486.419
1864304.442
1864427.193
1864554.804
1864513.051
1864514.932
1864510.792
1864510.138
1864508.397
1864507.173
1864505.721
1864504.347
1864502.928
1864501.536
1864500.153
1864498.821
1864497.524
1864496.374
1864495.231
1864494.599
1864493.587
1864495.002
1864489.465
1864477.713
1864463.831
1864487.371
1864307.236
1864434.041
1864554.72
1864512.967
1864514.848
1864510.708
1864510.054
1864508.314
1864507.092
1864505.642
1864504.27
1864502.854
1864501.465
1864500.086
1864498.758
1864497.466
1864496.32
1864495.179
1864494.549
1864493.53
1864494.935
1864489.39
1864478.111
1864464.095
1864487.901
1864308.865
1864436.833
1864554.638
1864512.884
1864514.765
1864510.625
1864509.972
1864508.232
1864507.012
1864505.563
1864504.194
1864502.781
1864501.396
1864500.021
1864498.697
1864497.409
1864496.267
1864495.129
1864494.501
1864493.476
1864494.87
1864489.334
1864478.571
1864464.452
1864488.488
1864311.321
1864439.175
1864554.556
1864512.801
1864514.682
1864510.542
1864509.89
1864508.151
1864506.932
1864505.486
1864504.119
1864502.709
1864501.327
1864499.955
1864498.636
1864497.352
1864496.214
1864495.079
1864494.453
1864493.425
1864494.807
1864489.299
1864478.995
1864464.779
1864488.978
1864314.414
1864442.771
1864554.475
1864512.719
1864514.6
1864510.46
1864509.808
1864508.07
1864506.853
1864505.408
1864504.043
1864502.637
1864501.258
1864499.89
1864498.574
1864497.294
1864496.16
1864495.028
1864494.402
1864493.369
1864494.731
1864489.252
1864479.217
1864464.962
1864489.025
1864316.836
1864444.935
1864554.393
1864512.636
1864514.518
1864510.377
1864509.726
1864507.989
1864506.773
1864505.33
1864503.967
1864502.563
1864501.187
1864499.823
1864498.511
1864497.234
1864496.104
1864494.975
1864494.349
1864493.318
1864494.661
1864489.266
1864479.506
1864465.564
1864489.671
1864321.733
1864451.351
1864554.311
1864512.553
1864514.434
1864510.294
1864509.643
1864507.907
1864506.692
1864505.251
1864503.89
1864502.488
1864501.115
1864499.754
1864498.445
1864497.172
1864496.044
1864494.918
1864494.293
1864493.261
1864494.59
1864489.259
1864479.78
1864466.05
1864490.235
1864325.964
1864456.659
1864554.227
1864512.469
1864514.35
1864510.21
1864509.559
1864507.824
1864506.61
1864505.17
1864503.811
1864502.411
1864501.04
1864499.681
1864498.375
1864497.105
1864495.98
1864494.855
1864494.231
1864493.194
1864494.514
1864489.167
1864479.936
1864465.961
1864490.127
1864326.288
1864456.958
1864554.142
1864512.384
1864514.265
1864510.124
1864509.474
1864507.739
1864506.526
1864505.087
1864503.729
1864502.331
1864500.962
1864499.605
1864498.302
1864497.034
1864495.911
1864494.788
1864494.166
1864493.125
1864494.445
1864489.075
1864480.103
1864465.937
1864490.448
1864326.286
1864458.639
1864554.055
1864512.296
1864514.177
1864510.037
1864509.387
1864507.652
1864506.44
1864505.001
1864503.645
1864502.248
1864500.88
1864499.525
1864498.223
1864496.957
1864495.836
1864494.714
1864494.093
1864493.048
1864494.371
1864488.982
1864480.249
1864466.097
1864491.22
1864326.34
1864460.016
1864553.966
1864512.207
1864514.088
1864509.948
1864509.298
1864507.564
1864506.351
1864504.914
1864503.558
1864502.162
1864500.795
1864499.441
1864498.14
1864496.875
1864495.755
1864494.634
1864494.015
1864492.967
1864494.296
1864488.886
1864480.356
1864466.227
1864491.873
1864325.857
1864459.482
1864553.875
1864512.116
1864513.997
1864509.857
1864509.207
1864507.473
1864506.26
1864504.823
1864503.467
1864502.072
1864500.705
1864499.352
1864498.052
1864496.787
1864495.668
1864494.546
1864493.929
1864492.88
1864494.215
1864488.772
1864480.272
1864466.086
1864491.789
1864324.378
1864456.511
1864553.782
1864512.023
1864513.904
1864509.764
1864509.114
1864507.379
1864506.167
1864504.73
1864503.374
1864501.978
1864500.612
1864499.258
1864497.958
1864496.693
1864495.574
1864494.453
1864493.836
1864492.788
1864494.129
1864488.66
1864479.995
1864465.751
1864491.135
1864322.508
1864452.688
1864553.687
1864511.928
1864513.809
1864509.668
1864509.018
1864507.284
1864506.071
1864504.634
1864503.278
1864501.881
1864500.514
1864499.16
1864497.859
1864496.594
1864495.474
1864494.353
1864493.736
1864492.693
1864494.038
1864488.572
1864479.587
1864465.399
1864490.445
1864321.068
1864450.314
1864553.589
1864511.831
1864513.711
1864509.571
1864508.921
1864507.186
1864505.973
1864504.535
1864503.178
1864501.781
1864500.413
1864499.058
1864497.756
1864496.489
1864495.368
1864494.247
1864493.629
1864492.592
1864493.935
1864488.488
1864479.122
1864465.072
1864489.888
1864319.599
1864448.981
1864553.49
1864511.731
1864513.612
1864509.472
1864508.822
1864507.087
1864505.873
1864504.434
1864503.076
1864501.678
1864500.308
1864498.951
1864497.647
1864496.379
1864495.257
1864494.135
1864493.516
1864492.488
1864493.831
1864488.428
1864478.811
1864464.928
1864489.663
1864318.959
1864449.574
1864553.389
1864511.631
1864513.512
1864509.371
1864508.721
1864506.985
1864505.771
1864504.331
1864502.972
1864501.572
1864500.2
1864498.841
1864497.535
1864496.265
1864495.14
1864494.019
1864493.397
1864492.377
1864493.718
1864488.354
1864478.419
1864464.632
1864489.081
1864318.312
1864448.248
1864553.286
1864511.528
1864513.409
1864509.269
1864508.618
1864506.882
1864505.667
1864504.225
1864502.865
1864501.463
1864500.089
1864498.728
1864497.419
1864496.147
1864495.019
1864493.896
1864493.271
1864492.26
1864493.592
1864488.264
1864477.844
1864464.229
1864488.002
1864317.191
1864444.07
1864553.182
1864511.425
1864513.306
1864509.166
1864508.515
1864506.778
1864505.562
1864504.119
1864502.756
1864501.352
1864499.976
1864498.612
1864497.301
1864496.025
1864494.894
1864493.771
1864493.142
1864492.141
1864493.466
1864488.183
1864477.351
1864463.947
1864486.945
1864316.722
1864441.498
1864553.077
1864511.321
1864513.202
1864509.062
1864508.411
1864506.673
1864505.455
1864504.011
1864502.647
1864501.24
1864499.862
1864498.495
1864497.18
1864495.901
1864494.767
1864493.642
1864493.009
1864492.016
1864493.336
1864488.091
1864476.95
1864463.62
1864486.154
1864317.002
1864440.913